<?xml version="1.0"?>
<VTKFile type="UnstructuredGrid" version="0.1" byte_order="LittleEndian" compressor="vtkZLibDataCompressor">
<UnstructuredGrid>
<Piece NumberOfPoints="10000" NumberOfCells="6400">
<Points>
<DataArray type="Float32" NumberOfComponents="3" format="ascii">
-3.360000e+00 0.000000e+00 0.000000e+00
-3.276000e+00 0.000000e+00 0.000000e+00
-3.192000e+00 0.000000e+00 0.000000e+00
-3.108000e+00 0.000000e+00 0.000000e+00
-3.024000e+00 0.000000e+00 0.000000e+00
-3.360000e+00 6.412500e-02 0.000000e+00
-3.276000e+00 6.412500e-02 0.000000e+00
-3.192000e+00 6.412500e-02 0.000000e+00
-3.108000e+00 6.412500e-02 0.000000e+00
-3.024000e+00 6.412500e-02 0.000000e+00
-3.360000e+00 1.282500e-01 0.000000e+00
-3.276000e+00 1.282500e-01 0.000000e+00
-3.192000e+00 1.282500e-01 0.000000e+00
-3.108000e+00 1.282500e-01 0.000000e+00
-3.024000e+00 1.282500e-01 0.000000e+00
-3.360000e+00 1.923750e-01 0.000000e+00
-3.276000e+00 1.923750e-01 0.000000e+00
-3.192000e+00 1.923750e-01 0.000000e+00
-3.108000e+00 1.923750e-01 0.000000e+00
-3.024000e+00 1.923750e-01 0.000000e+00
-3.360000e+00 2.565000e-01 0.000000e+00
-3.276000e+00 2.565000e-01 0.000000e+00
-3.192000e+00 2.565000e-01 0.000000e+00
-3.108000e+00 2.565000e-01 0.000000e+00
-3.024000e+00 2.565000e-01 0.000000e+00
-3.024000e+00 0.000000e+00 0.000000e+00
-2.940000e+00 0.000000e+00 0.000000e+00
-2.856000e+00 0.000000e+00 0.000000e+00
-2.772000e+00 0.000000e+00 0.000000e+00
-2.688000e+00 0.000000e+00 0.000000e+00
-3.024000e+00 6.412500e-02 0.000000e+00
-2.940000e+00 6.412500e-02 0.000000e+00
-2.856000e+00 6.412500e-02 0.000000e+00
-2.772000e+00 6.412500e-02 0.000000e+00
-2.688000e+00 6.412500e-02 0.000000e+00
-3.024000e+00 1.282500e-01 0.000000e+00
-2.940000e+00 1.282500e-01 0.000000e+00
-2.856000e+00 1.282500e-01 0.000000e+00
-2.772000e+00 1.282500e-01 0.000000e+00
-2.688000e+00 1.282500e-01 0.000000e+00
-3.024000e+00 1.923750e-01 0.000000e+00
-2.940000e+00 1.923750e-01 0.000000e+00
-2.856000e+00 1.923750e-01 0.000000e+00
-2.772000e+00 1.923750e-01 0.000000e+00
-2.688000e+00 1.923750e-01 0.000000e+00
-3.024000e+00 2.565000e-01 0.000000e+00
-2.940000e+00 2.565000e-01 0.000000e+00
-2.856000e+00 2.565000e-01 0.000000e+00
-2.772000e+00 2.565000e-01 0.000000e+00
-2.688000e+00 2.565000e-01 0.000000e+00
-2.688000e+00 0.000000e+00 0.000000e+00
-2.604000e+00 0.000000e+00 0.000000e+00
-2.520000e+00 0.000000e+00 0.000000e+00
-2.436000e+00 0.000000e+00 0.000000e+00
-2.352000e+00 0.000000e+00 0.000000e+00
-2.688000e+00 6.412500e-02 0.000000e+00
-2.604000e+00 6.412500e-02 0.000000e+00
-2.520000e+00 6.412500e-02 0.000000e+00
-2.436000e+00 6.412500e-02 0.000000e+00
-2.352000e+00 6.412500e-02 0.000000e+00
-2.688000e+00 1.282500e-01 0.000000e+00
-2.604000e+00 1.282500e-01 0.000000e+00
-2.520000e+00 1.282500e-01 0.000000e+00
-2.436000e+00 1.282500e-01 0.000000e+00
-2.352000e+00 1.282500e-01 0.000000e+00
-2.688000e+00 1.923750e-01 0.000000e+00
-2.604000e+00 1.923750e-01 0.000000e+00
-2.520000e+00 1.923750e-01 0.000000e+00
-2.436000e+00 1.923750e-01 0.000000e+00
-2.352000e+00 1.923750e-01 0.000000e+00
-2.688000e+00 2.565000e-01 0.000000e+00
-2.604000e+00 2.565000e-01 0.000000e+00
-2.520000e+00 2.565000e-01 0.000000e+00
-2.436000e+00 2.565000e-01 0.000000e+00
-2.352000e+00 2.565000e-01 0.000000e+00
-2.352000e+00 0.000000e+00 0.000000e+00
-2.268000e+00 0.000000e+00 0.000000e+00
-2.184000e+00 0.000000e+00 0.000000e+00
-2.100000e+00 0.000000e+00 0.000000e+00
-2.016000e+00 0.000000e+00 0.000000e+00
-2.352000e+00 6.412500e-02 0.000000e+00
-2.268000e+00 6.412500e-02 0.000000e+00
-2.184000e+00 6.412500e-02 0.000000e+00
-2.100000e+00 6.412500e-02 0.000000e+00
-2.016000e+00 6.412500e-02 0.000000e+00
-2.352000e+00 1.282500e-01 0.000000e+00
-2.268000e+00 1.282500e-01 0.000000e+00
-2.184000e+00 1.282500e-01 0.000000e+00
-2.100000e+00 1.282500e-01 0.000000e+00
-2.016000e+00 1.282500e-01 0.000000e+00
-2.352000e+00 1.923750e-01 0.000000e+00
-2.268000e+00 1.923750e-01 0.000000e+00
-2.184000e+00 1.923750e-01 0.000000e+00
-2.100000e+00 1.923750e-01 0.000000e+00
-2.016000e+00 1.923750e-01 0.000000e+00
-2.352000e+00 2.565000e-01 0.000000e+00
-2.268000e+00 2.565000e-01 0.000000e+00
-2.184000e+00 2.565000e-01 0.000000e+00
-2.100000e+00 2.565000e-01 0.000000e+00
-2.016000e+00 2.565000e-01 0.000000e+00
-2.016000e+00 0.000000e+00 0.000000e+00
-1.932000e+00 0.000000e+00 0.000000e+00
-1.848000e+00 0.000000e+00 0.000000e+00
-1.764000e+00 0.000000e+00 0.000000e+00
-1.680000e+00 0.000000e+00 0.000000e+00
-2.016000e+00 6.412500e-02 0.000000e+00
-1.932000e+00 6.412500e-02 0.000000e+00
-1.848000e+00 6.412500e-02 0.000000e+00
-1.764000e+00 6.412500e-02 0.000000e+00
-1.680000e+00 6.412500e-02 0.000000e+00
-2.016000e+00 1.282500e-01 0.000000e+00
-1.932000e+00 1.282500e-01 0.000000e+00
-1.848000e+00 1.282500e-01 0.000000e+00
-1.764000e+00 1.282500e-01 0.000000e+00
-1.680000e+00 1.282500e-01 0.000000e+00
-2.016000e+00 1.923750e-01 0.000000e+00
-1.932000e+00 1.923750e-01 0.000000e+00
-1.848000e+00 1.923750e-01 0.000000e+00
-1.764000e+00 1.923750e-01 0.000000e+00
-1.680000e+00 1.923750e-01 0.000000e+00
-2.016000e+00 2.565000e-01 0.000000e+00
-1.932000e+00 2.565000e-01 0.000000e+00
-1.848000e+00 2.565000e-01 0.000000e+00
-1.764000e+00 2.565000e-01 0.000000e+00
-1.680000e+00 2.565000e-01 0.000000e+00
-1.680000e+00 0.000000e+00 0.000000e+00
-1.596000e+00 0.000000e+00 0.000000e+00
-1.512000e+00 0.000000e+00 0.000000e+00
-1.428000e+00 0.000000e+00 0.000000e+00
-1.344000e+00 0.000000e+00 0.000000e+00
-1.680000e+00 6.412500e-02 0.000000e+00
-1.596000e+00 6.412500e-02 0.000000e+00
-1.512000e+00 6.412500e-02 0.000000e+00
-1.428000e+00 6.412500e-02 0.000000e+00
-1.344000e+00 6.412500e-02 0.000000e+00
-1.680000e+00 1.282500e-01 0.000000e+00
-1.596000e+00 1.282500e-01 0.000000e+00
-1.512000e+00 1.282500e-01 0.000000e+00
-1.428000e+00 1.282500e-01 0.000000e+00
-1.344000e+00 1.282500e-01 0.000000e+00
-1.680000e+00 1.923750e-01 0.000000e+00
-1.596000e+00 1.923750e-01 0.000000e+00
-1.512000e+00 1.923750e-01 0.000000e+00
-1.428000e+00 1.923750e-01 0.000000e+00
-1.344000e+00 1.923750e-01 0.000000e+00
-1.680000e+00 2.565000e-01 0.000000e+00
-1.596000e+00 2.565000e-01 0.000000e+00
-1.512000e+00 2.565000e-01 0.000000e+00
-1.428000e+00 2.565000e-01 0.000000e+00
-1.344000e+00 2.565000e-01 0.000000e+00
-1.344000e+00 0.000000e+00 0.000000e+00
-1.260000e+00 0.000000e+00 0.000000e+00
-1.176000e+00 0.000000e+00 0.000000e+00
-1.092000e+00 0.000000e+00 0.000000e+00
-1.008000e+00 0.000000e+00 0.000000e+00
-1.344000e+00 6.412500e-02 0.000000e+00
-1.260000e+00 6.412500e-02 0.000000e+00
-1.176000e+00 6.412500e-02 0.000000e+00
-1.092000e+00 6.412500e-02 0.000000e+00
-1.008000e+00 6.412500e-02 0.000000e+00
-1.344000e+00 1.282500e-01 0.000000e+00
-1.260000e+00 1.282500e-01 0.000000e+00
-1.176000e+00 1.282500e-01 0.000000e+00
-1.092000e+00 1.282500e-01 0.000000e+00
-1.008000e+00 1.282500e-01 0.000000e+00
-1.344000e+00 1.923750e-01 0.000000e+00
-1.260000e+00 1.923750e-01 0.000000e+00
-1.176000e+00 1.923750e-01 0.000000e+00
-1.092000e+00 1.923750e-01 0.000000e+00
-1.008000e+00 1.923750e-01 0.000000e+00
-1.344000e+00 2.565000e-01 0.000000e+00
-1.260000e+00 2.565000e-01 0.000000e+00
-1.176000e+00 2.565000e-01 0.000000e+00
-1.092000e+00 2.565000e-01 0.000000e+00
-1.008000e+00 2.565000e-01 0.000000e+00
-1.008000e+00 0.000000e+00 0.000000e+00
-9.240000e-01 0.000000e+00 0.000000e+00
-8.400000e-01 0.000000e+00 0.000000e+00
-7.560000e-01 0.000000e+00 0.000000e+00
-6.720000e-01 0.000000e+00 0.000000e+00
-1.008000e+00 6.412500e-02 0.000000e+00
-9.240000e-01 6.412500e-02 0.000000e+00
-8.400000e-01 6.412500e-02 0.000000e+00
-7.560000e-01 6.412500e-02 0.000000e+00
-6.720000e-01 6.412500e-02 0.000000e+00
-1.008000e+00 1.282500e-01 0.000000e+00
-9.240000e-01 1.282500e-01 0.000000e+00
-8.400000e-01 1.282500e-01 0.000000e+00
-7.560000e-01 1.282500e-01 0.000000e+00
-6.720000e-01 1.282500e-01 0.000000e+00
-1.008000e+00 1.923750e-01 0.000000e+00
-9.240000e-01 1.923750e-01 0.000000e+00
-8.400000e-01 1.923750e-01 0.000000e+00
-7.560000e-01 1.923750e-01 0.000000e+00
-6.720000e-01 1.923750e-01 0.000000e+00
-1.008000e+00 2.565000e-01 0.000000e+00
-9.240000e-01 2.565000e-01 0.000000e+00
-8.400000e-01 2.565000e-01 0.000000e+00
-7.560000e-01 2.565000e-01 0.000000e+00
-6.720000e-01 2.565000e-01 0.000000e+00
-6.720000e-01 0.000000e+00 0.000000e+00
-5.880000e-01 0.000000e+00 0.000000e+00
-5.040000e-01 0.000000e+00 0.000000e+00
-4.200000e-01 0.000000e+00 0.000000e+00
-3.360000e-01 0.000000e+00 0.000000e+00
-6.720000e-01 6.412500e-02 0.000000e+00
-5.880000e-01 6.412500e-02 0.000000e+00
-5.040000e-01 6.412500e-02 0.000000e+00
-4.200000e-01 6.412500e-02 0.000000e+00
-3.360000e-01 6.412500e-02 0.000000e+00
-6.720000e-01 1.282500e-01 0.000000e+00
-5.880000e-01 1.282500e-01 0.000000e+00
-5.040000e-01 1.282500e-01 0.000000e+00
-4.200000e-01 1.282500e-01 0.000000e+00
-3.360000e-01 1.282500e-01 0.000000e+00
-6.720000e-01 1.923750e-01 0.000000e+00
-5.880000e-01 1.923750e-01 0.000000e+00
-5.040000e-01 1.923750e-01 0.000000e+00
-4.200000e-01 1.923750e-01 0.000000e+00
-3.360000e-01 1.923750e-01 0.000000e+00
-6.720000e-01 2.565000e-01 0.000000e+00
-5.880000e-01 2.565000e-01 0.000000e+00
-5.040000e-01 2.565000e-01 0.000000e+00
-4.200000e-01 2.565000e-01 0.000000e+00
-3.360000e-01 2.565000e-01 0.000000e+00
-3.360000e-01 0.000000e+00 0.000000e+00
-2.520000e-01 0.000000e+00 0.000000e+00
-1.680000e-01 0.000000e+00 0.000000e+00
-8.400000e-02 0.000000e+00 0.000000e+00
-4.440890e-16 0.000000e+00 0.000000e+00
-3.360000e-01 6.412500e-02 0.000000e+00
-2.520000e-01 6.412500e-02 0.000000e+00
-1.680000e-01 6.412500e-02 0.000000e+00
-8.400000e-02 6.412500e-02 0.000000e+00
-4.440890e-16 6.412500e-02 0.000000e+00
-3.360000e-01 1.282500e-01 0.000000e+00
-2.520000e-01 1.282500e-01 0.000000e+00
-1.680000e-01 1.282500e-01 0.000000e+00
-8.400000e-02 1.282500e-01 0.000000e+00
-4.440890e-16 1.282500e-01 0.000000e+00
-3.360000e-01 1.923750e-01 0.000000e+00
-2.520000e-01 1.923750e-01 0.000000e+00
-1.680000e-01 1.923750e-01 0.000000e+00
[...]
<PointData>
<DataArray type="Float32" Name="V1" format="ascii">
0.000000e+00
0.000000e+00
0.000000e+00
0.000000e+00
0.000000e+00
6.347820e-02
5.961310e-02
5.533980e-02
5.065840e-02
4.556880e-02
1.013490e-01
9.769890e-02
9.290150e-02
8.695650e-02
7.986370e-02
1.136110e-01
1.142570e-01
1.126850e-01
1.088940e-01
1.028850e-01
1.002660e-01
1.092890e-01
1.146910e-01
1.164720e-01
1.146320e-01
0.000000e+00
0.000000e+00
0.000000e+00
0.000000e+00
0.000000e+00
4.556880e-02
4.018730e-02
3.630810e-02
3.393140e-02
3.305700e-02
7.986370e-02
7.212970e-02
6.645360e-02
6.283540e-02
6.127500e-02
1.028850e-01
9.582730e-02
9.043640e-02
8.671200e-02
8.465420e-02
1.146320e-01
1.112800e-01
1.082570e-01
1.055610e-01
1.031940e-01
0.000000e+00
0.000000e+00
0.000000e+00
0.000000e+00
0.000000e+00
3.305700e-02
3.239560e-02
3.200650e-02
3.188970e-02
3.204520e-02
6.127500e-02
6.020130e-02
5.964740e-02
5.961320e-02
6.009880e-02
8.465420e-02
8.341720e-02
8.292260e-02
8.317060e-02
8.416100e-02
1.031940e-01
1.020430e-01
1.018320e-01
1.025620e-01
1.042320e-01
0.000000e+00
0.000000e+00
0.000000e+00
0.000000e+00
0.000000e+00
3.204520e-02
3.232400e-02
3.292990e-02
3.386280e-02
3.512270e-02
6.009880e-02
6.081990e-02
6.208130e-02
6.388290e-02
6.622480e-02
8.416100e-02
8.548770e-02
8.745420e-02
9.006040e-02
9.330640e-02
1.042320e-01
1.063270e-01
1.090490e-01
1.123950e-01
1.163670e-01
0.000000e+00
0.000000e+00
0.000000e+00
0.000000e+00
0.000000e+00
3.512270e-02
3.658830e-02
3.836420e-02
4.045020e-02
4.284640e-02
6.622480e-02
6.893760e-02
7.219830e-02
7.600710e-02
8.036380e-02
9.330640e-02
9.704780e-02
1.015030e-01
1.066710e-01
1.125520e-01
1.163670e-01
1.209190e-01
1.262770e-01
1.324410e-01
1.394110e-01
0.000000e+00
0.000000e+00
0.000000e+00
0.000000e+00
0.000000e+00
4.284640e-02
4.549710e-02
4.871040e-02
5.248620e-02
5.682460e-02
8.036380e-02
8.516250e-02
9.090730e-02
9.759800e-02
1.052350e-01
1.125520e-01
1.189960e-01
1.265910e-01
1.353360e-01
1.452310e-01
1.394110e-01
1.469980e-01
1.557610e-01
1.656990e-01
1.768120e-01
0.000000e+00
0.000000e+00
0.000000e+00
0.000000e+00
0.000000e+00
5.682460e-02
6.140860e-02
6.701570e-02
7.364600e-02
8.129950e-02
1.052350e-01
1.132830e-01
1.230200e-01
1.344470e-01
1.475640e-01
1.452310e-01
1.556220e-01
1.680130e-01
1.824030e-01
1.987920e-01
1.768120e-01
1.884280e-01
2.019950e-01
2.175140e-01
2.349860e-01
0.000000e+00
0.000000e+00
0.000000e+00
0.000000e+00
0.000000e+00
8.129950e-02
8.888910e-02
9.830930e-02
1.095600e-01
1.226420e-01
1.475640e-01
1.605800e-01
1.765430e-01
1.954530e-01
2.173080e-01
1.987920e-01
2.150730e-01
2.347020e-01
2.576770e-01
2.839990e-01
2.349860e-01
2.523690e-01
2.727850e-01
2.962330e-01
3.227140e-01
0.000000e+00
0.000000e+00
0.000000e+00
0.000000e+00
0.000000e+00
1.226420e-01
1.354200e-01
1.504980e-01
1.678760e-01
1.875550e-01
2.173080e-01
2.387950e-01
2.639020e-01
2.926280e-01
3.249740e-01
2.839990e-01
3.101270e-01
3.402130e-01
3.742570e-01
4.122590e-01
3.227140e-01
3.494140e-01
3.794300e-01
4.127620e-01
4.494090e-01
0.000000e+00
0.000000e+00
0.000000e+00
0.000000e+00
0.000000e+00
1.875550e-01
2.092590e-01
2.312830e-01
2.536250e-01
2.762860e-01
3.249740e-01
3.609490e-01
3.975100e-01
4.346560e-01
4.723890e-01
4.122590e-01
4.550700e-01
4.986810e-01
5.430940e-01
5.883090e-01
4.494090e-01
4.916210e-01
5.347970e-01
5.789390e-01
6.240460e-01
0.000000e+00
0.000000e+00
0.000000e+00
0.000000e+00
0.000000e+00
2.762860e-01
3.055800e-01
3.301100e-01
3.498750e-01
3.648750e-01
4.723890e-01
5.212710e-01
5.632150e-01
5.982200e-01
6.262870e-01
5.883090e-01
6.470730e-01
6.993160e-01
7.450370e-01
7.842370e-01
6.240460e-01
6.829870e-01
7.384130e-01
7.903260e-01
8.387240e-01
0.000000e+00
0.000000e+00
0.000000e+00
0.000000e+00
0.000000e+00
3.648750e-01
3.794180e-01
3.859260e-01
3.844000e-01
3.748390e-01
6.262870e-01
6.545550e-01
6.705660e-01
6.743220e-01
6.658210e-01
7.842370e-01
8.254110e-01
8.539210e-01
8.697660e-01
8.729450e-01
8.387240e-01
8.919880e-01
9.359900e-01
9.707310e-01
9.962110e-01
0.000000e+00
0.000000e+00
0.000000e+00
0.000000e+00
0.000000e+00
3.748390e-01
3.443930e-01
3.104030e-01
2.728710e-01
2.317970e-01
6.658210e-01
6.244570e-01
5.753380e-01
5.184640e-01
4.538350e-01
8.729450e-01
8.401940e-01
7.948060e-01
7.367790e-01
6.661150e-01
9.962110e-01
9.916040e-01
9.688050e-01
9.278170e-01
8.686370e-01
0.000000e+00
0.000000e+00
0.000000e+00
0.000000e+00
0.000000e+00
2.317970e-01
1.874970e-01
1.466130e-01
1.091440e-01
7.509060e-02
4.538350e-01
3.780160e-01
3.054180e-01
2.360420e-01
1.698890e-01
6.661150e-01
5.715560e-01
4.764160e-01
3.806950e-01
2.843940e-01
8.686370e-01
7.681170e-01
6.596060e-01
5.431020e-01
4.186070e-01
0.000000e+00
0.000000e+00
0.000000e+00
0.000000e+00
0.000000e+00
7.509060e-02
5.305660e-02
3.291510e-02
1.466610e-02
-1.690420e-03
1.698890e-01
1.255750e-01
8.616020e-02
5.164540e-02
2.203010e-02
2.843940e-01
2.175540e-01
1.597350e-01
1.109380e-01
7.116150e-02
4.186070e-01
3.289950e-01
2.536410e-01
1.925440e-01
1.457040e-01
0.000000e+00
0.000000e+00
0.000000e+00
0.000000e+00
0.000000e+00
-1.690420e-03
-1.346390e-02
-1.820310e-02
-1.590790e-02
-6.578380e-03
2.203010e-02
3.799560e-04
-9.303700e-03
-7.020890e-03
7.228390e-03
7.116150e-02
4.153170e-02
2.669820e-02
2.666110e-02
4.142030e-02
1.457040e-01
1.099910e-01
8.980260e-02
8.513790e-02
9.599740e-02
0.000000e+00
0.000000e+00
0.000000e+00
0.000000e+00
0.000000e+00
-6.578380e-03
-1.285290e-03
4.161120e-03
9.760860e-03
1.551390e-02
7.228390e-03
1.549120e-02
2.381200e-02
3.219070e-02
4.062750e-02
4.142030e-02
5.032950e-02
5.895260e-02
6.728970e-02
7.534070e-02
9.599740e-02
1.032300e-01
1.095830e-01
1.150580e-01
1.196540e-01
0.000000e+00
0.000000e+00
0.000000e+00
0.000000e+00
0.000000e+00
1.551390e-02
2.003570e-02
2.332520e-02
2.538240e-02
2.620740e-02
4.062750e-02
4.707330e-02
5.156730e-02
5.410940e-02
5.469960e-02
7.534070e-02
8.111290e-02
8.472630e-02
8.618080e-02
8.547660e-02
1.196540e-01
1.221540e-01
1.228020e-01
1.215970e-01
1.185380e-01
0.000000e+00
0.000000e+00
0.000000e+00
0.000000e+00
0.000000e+00
2.620740e-02
2.747580e-02
2.806770e-02
2.798300e-02
2.722170e-02
5.469960e-02
5.606960e-02
5.640910e-02
5.571830e-02
5.399700e-02
8.547660e-02
8.578110e-02
8.502420e-02
8.320580e-02
8.032590e-02
1.185380e-01
1.166110e-01
1.139130e-01
1.104460e-01
1.062080e-01
0.000000e+00
0.000000e+00
0.000000e+00
0.000000e+00
0.000000e+00
2.722170e-02
2.728280e-02
2.624380e-02
2.410490e-02
2.086590e-02
5.399700e-02
5.336300e-02
5.127950e-02
4.774660e-02
4.276420e-02
8.032590e-02
7.824070e-02
7.510710e-02
7.092510e-02
6.569480e-02
1.062080e-01
1.019160e-01
9.772660e-02
9.364050e-02
8.965770e-02
1.002660e-01
1.092890e-01
1.146910e-01
1.164720e-01
1.146320e-01
9.945850e-02
1.076590e-01
1.135660e-01
1.171770e-01
1.184940e-01
9.848610e-02
1.056890e-01
1.116220e-01
1.162860e-01
1.196800e-01
9.734850e-02
1.033760e-01
1.088590e-01
1.137960e-01
1.181890e-01
9.604590e-02
1.007220e-01
1.052770e-01
1.097100e-01
1.140210e-01
1.146320e-01
1.112800e-01
1.082570e-01
1.055610e-01
1.031940e-01
1.184940e-01
1.178380e-01
1.169290e-01
1.157650e-01
1.143480e-01
1.196800e-01
1.210570e-01
1.218030e-01
1.219180e-01
1.214000e-01
1.181890e-01
1.209370e-01
1.228800e-01
1.240180e-01
1.243500e-01
1.140210e-01
1.174780e-01
1.201600e-01
1.220670e-01
1.231980e-01
1.031940e-01
1.020430e-01
1.018320e-01
1.025620e-01
1.042320e-01
1.143480e-01
1.136800e-01
1.138870e-01
1.149690e-01
1.169250e-01
1.214000e-01
1.212650e-01
1.218960e-01
1.232940e-01
1.254580e-01
1.243500e-01
1.247970e-01
1.258590e-01
1.275360e-01
1.298300e-01
1.231980e-01
1.242760e-01
1.257750e-01
1.276970e-01
1.300400e-01
1.042320e-01
1.063270e-01
1.090490e-01
1.123950e-01
1.163670e-01
1.169250e-01
1.193940e-01
1.224870e-01
1.262040e-01
1.305450e-01
1.254580e-01
1.281750e-01
1.314990e-01
1.354310e-01
1.399720e-01
1.298300e-01
1.326700e-01
1.360860e-01
1.400790e-01
1.446480e-01
1.300400e-01
1.328790e-01
1.362470e-01
1.401450e-01
1.445730e-01
1.163670e-01
1.209190e-01
1.262770e-01
1.324410e-01
1.394110e-01
1.305450e-01
1.354330e-01
1.411280e-01
1.476310e-01
1.549410e-01
1.399720e-01
1.450220e-01
1.508600e-01
1.574840e-01
1.648960e-01
1.446480e-01
1.496860e-01
1.554710e-01
1.620010e-01
1.692770e-01
1.445730e-01
1.494260e-01
1.549620e-01
1.611810e-01
1.680820e-01
1.394110e-01
1.469980e-01
1.557610e-01
1.656990e-01
1.768120e-01
1.549410e-01
1.628340e-01
1.718700e-01
1.820490e-01
1.933710e-01
1.648960e-01
1.728490e-01
1.818960e-01
1.920380e-01
2.032750e-01
1.692770e-01
1.770430e-01
1.858390e-01
1.956660e-01
2.065240e-01
1.680820e-01
1.754150e-01
1.836990e-01
1.929320e-01
2.031160e-01
1.768120e-01
1.884280e-01
2.019950e-01
2.175140e-01
2.349860e-01
1.933710e-01
2.050460e-01
2.186180e-01
2.340890e-01
2.514570e-01
2.032750e-01
2.147460e-01
2.280450e-01
2.431720e-01
2.601260e-01
2.065240e-01
2.175280e-01
2.302750e-01
2.447640e-01
2.609940e-01
2.031160e-01
2.133930e-01
2.253090e-01
2.388650e-01
2.540600e-01
2.349860e-01
2.523690e-01
2.727850e-01
2.962330e-01
3.227140e-01
2.514570e-01
2.683900e-01
2.883910e-01
3.114590e-01
3.375960e-01
2.601260e-01
2.763450e-01
2.956660e-01
3.180900e-01
3.436160e-01
2.609940e-01
2.762340e-01
2.946110e-01
3.161250e-01
3.407760e-01
2.540600e-01
2.680580e-01
2.852260e-01
3.055650e-01
3.290750e-01
3.227140e-01
3.494140e-01
3.794300e-01
4.127620e-01
4.494090e-01
3.375960e-01
3.632680e-01
3.926340e-01
4.256930e-01
4.624460e-01
3.436160e-01
3.679770e-01
3.964140e-01
4.289260e-01
4.655130e-01
3.407760e-01
3.635430e-01
3.907700e-01
4.224600e-01
4.586110e-01
3.290750e-01
3.499630e-01
3.757030e-01
4.062950e-01
4.417390e-01
4.494090e-01
4.916210e-01
5.347970e-01
5.789390e-01
6.240460e-01
4.624460e-01
5.043340e-01
5.479000e-01
5.931420e-01
6.400620e-01
4.655130e-01
5.067350e-01
5.502500e-01
5.960580e-01
6.441590e-01
4.586110e-01
4.988230e-01
5.418480e-01
5.876850e-01
6.363350e-01
4.417390e-01
4.805980e-01
5.226930e-01
5.680240e-01
6.165910e-01
6.240460e-01
6.829870e-01
7.384130e-01
7.903260e-01
8.387240e-01
6.400620e-01
7.034400e-01
7.633470e-01
8.197850e-01
8.727530e-01
6.441590e-01
7.113830e-01
7.751770e-01
8.355400e-01
8.924740e-01
6.363350e-01
7.068160e-01
7.739020e-01
8.375910e-01
8.978850e-01
6.165910e-01
6.897400e-01
7.595230e-01
8.259380e-01
8.889870e-01
8.387240e-01
8.919880e-01
9.359900e-01
9.707310e-01
9.962110e-01
8.727530e-01
9.353420e-01
9.882050e-01
1.031340e+00
1.064750e+00
8.924740e-01
9.636600e-01
1.024650e+00
1.075450e+00
1.116060e+00
8.978850e-01
9.769420e-01
1.045330e+00
1.103060e+00
1.150120e+00
8.889870e-01
9.751880e-01
1.050250e+00
1.114170e+00
1.166940e+00
9.962110e-01
9.916040e-01
9.688050e-01
9.278170e-01
8.686370e-01
1.064750e+00
1.070950e+00
1.061890e+00
1.037580e+00
9.980020e-01
1.116060e+00
1.130470e+00
1.131780e+00
1.120000e+00
1.095130e+00
1.150120e+00
1.170150e+00
1.178480e+00
1.175100e+00
1.160010e+00
1.166940e+00
1.190000e+00
1.201970e+00
1.202850e+00
1.192660e+00
8.686370e-01
7.681170e-01
6.596060e-01
5.431020e-01
4.186070e-01
9.980020e-01
9.159260e-01
8.175410e-01
7.028470e-01
5.718450e-01
1.095130e+00
1.028320e+00
9.413620e-01
8.342470e-01
7.069770e-01
1.160010e+00
1.105310e+00
1.031070e+00
9.373010e-01
8.240020e-01
1.192660e+00
1.146880e+00
1.086660e+00
1.012010e+00
9.229200e-01
4.186070e-01
3.289950e-01
2.536410e-01
1.925440e-01
1.457040e-01
5.718450e-01
4.616940e-01
3.681440e-01
2.911950e-01
2.308470e-01
7.069770e-01
5.862840e-01
4.810750e-01
3.913490e-01
3.171060e-01
8.240020e-01
7.027660e-01
5.924340e-01
4.930050e-01
4.044810e-01
9.229200e-01
8.111390e-01
7.022200e-01
5.961640e-01
4.929710e-01
1.457040e-01
1.099910e-01
8.980260e-02
8.513790e-02
9.599740e-02
2.308470e-01
1.843570e-01
1.545740e-01
1.414960e-01
1.451240e-01
3.171060e-01
2.596410e-01
2.197890e-01
1.975500e-01
1.929240e-01
4.044810e-01
3.358410e-01
2.854470e-01
2.532990e-01
2.393970e-01
4.929710e-01
4.129580e-01
3.515490e-01
3.087440e-01
2.845430e-01
9.599740e-02
1.032300e-01
1.095830e-01
1.150580e-01
1.196540e-01
1.451240e-01
1.489860e-01
1.520990e-01
1.544640e-01
1.560810e-01
1.929240e-01
1.918730e-01
1.905660e-01
1.890050e-01
1.871890e-01
2.393970e-01
2.318890e-01
2.249830e-01
2.186790e-01
2.129770e-01
2.845430e-01
2.690360e-01
2.553510e-01
2.434870e-01
2.334460e-01
1.196540e-01
1.221540e-01
1.228020e-01
1.215970e-01
1.185380e-01
1.560810e-01
1.553200e-01
1.529660e-01
1.490190e-01
1.434800e-01
1.871890e-01
1.831390e-01
1.778260e-01
1.712500e-01
1.634100e-01
2.129770e-01
2.056130e-01
1.973830e-01
1.882900e-01
1.783310e-01
2.334460e-01
2.227400e-01
2.116380e-01
2.001380e-01
1.882410e-01
1.185380e-01
1.166110e-01
1.139130e-01
1.104460e-01
1.062080e-01
1.434800e-01
1.398030e-01
1.354800e-01
1.305100e-01
1.248940e-01
1.634100e-01
1.581130e-01
1.523390e-01
1.460890e-01
1.393630e-01
1.783310e-01
1.715390e-01
1.644890e-01
1.571810e-01
1.496150e-01
1.882410e-01
1.800820e-01
1.719310e-01
1.637880e-01
1.556520e-01
1.062080e-01
1.019160e-01
9.772660e-02
9.364050e-02
8.965770e-02
1.248940e-01
1.194570e-01
1.143770e-01
1.096550e-01
1.052900e-01
1.393630e-01
1.329740e-01
1.271660e-01
1.219390e-01
1.172930e-01
1.496150e-01
1.424660e-01
1.360920e-01
1.304920e-01
1.256680e-01
1.556520e-01
1.479340e-01
1.411550e-01
1.353150e-01
1.304140e-01
9.604590e-02
1.007220e-01
1.052770e-01
1.097100e-01
1.140210e-01
9.458900e-02
9.874420e-02
1.028240e-01
1.068280e-01
1.107580e-01
9.299440e-02
9.677400e-02
1.004660e-01
1.040700e-01
1.075860e-01
9.126190e-02
9.481180e-02
9.820240e-02
1.014340e-01
1.045060e-01
8.939170e-02
9.285750e-02
9.603370e-02
9.892050e-02
1.015180e-01
1.140210e-01
1.174780e-01
1.201600e-01
1.220670e-01
1.231980e-01
1.107580e-01
1.141400e-01
1.169400e-01
1.191580e-01
1.207940e-01
1.075860e-01
1.107860e-01
1.135860e-01
1.159840e-01
1.179820e-01
1.045060e-01
1.074190e-01
1.100990e-01
1.125470e-01
1.147610e-01
1.015180e-01
1.040370e-01
1.064790e-01
1.088440e-01
1.111330e-01
1.231980e-01
1.242760e-01
1.257750e-01
1.276970e-01
1.300400e-01
1.207940e-01
1.223200e-01
1.241550e-01
1.262990e-01
1.287520e-01
1.179820e-01
1.198560e-01
1.219520e-01
1.242690e-01
1.268070e-01
1.147610e-01
1.168850e-01
1.191660e-01
1.216060e-01
1.242040e-01
1.111330e-01
1.134060e-01
1.157990e-01
1.183110e-01
1.209430e-01
1.300400e-01
1.328790e-01
1.362470e-01
1.401450e-01
1.445730e-01
1.287520e-01
1.316150e-01
1.349640e-01
1.387980e-01
1.431170e-01
1.268070e-01
1.296790e-01
1.329940e-01
1.367500e-01
1.409470e-01
1.242040e-01
1.270710e-01
1.303370e-01
1.340020e-01
1.380640e-01
1.209430e-01
1.237910e-01
1.269950e-01
1.305540e-01
1.344680e-01
1.445730e-01
1.494260e-01
1.549620e-01
1.611810e-01
1.680820e-01
1.431170e-01
1.478230e-01
1.531680e-01
1.591520e-01
1.657740e-01
1.409470e-01
1.454910e-01
1.506300e-01
1.563620e-01
1.626890e-01
1.380640e-01
1.424320e-01
1.473480e-01
1.528120e-01
1.588240e-01
1.344680e-01
1.386440e-01
1.433220e-01
1.485010e-01
1.541820e-01
1.680820e-01
1.754150e-01
1.836990e-01
1.929320e-01
2.031160e-01
1.657740e-01
1.727700e-01
1.806700e-01
1.894730e-01
1.991790e-01
1.626890e-01
1.693260e-01
1.768160e-01
1.851590e-01
1.943530e-01
1.588240e-01
1.650830e-01
1.721380e-01
1.799910e-01
1.886400e-01
1.541820e-01
1.600400e-01
1.666350e-01
1.739680e-01
1.820380e-01
2.031160e-01
2.133930e-01
2.253090e-01
2.388650e-01
2.540600e-01
1.991790e-01
2.089320e-01
2.202530e-01
2.331400e-01
2.475940e-01
1.943530e-01
2.035360e-01
2.142010e-01
2.263490e-01
2.399800e-01
1.886400e-01
1.972030e-01
2.071530e-01
2.184920e-01
2.312180e-01
1.820380e-01
1.899330e-01
1.991100e-01
2.095680e-01
2.213080e-01
2.540600e-01
2.680580e-01
2.852260e-01
3.055650e-01
3.290750e-01
2.475940e-01
2.606610e-01
2.769490e-01
2.964590e-01
3.191920e-01
2.399800e-01
2.520510e-01
2.673280e-01
2.858120e-01
3.075030e-01
2.312180e-01
2.422280e-01
2.563630e-01
2.736230e-01
2.940090e-01
2.213080e-01
2.311920e-01
2.440540e-01
2.598930e-01
2.787090e-01
3.290750e-01
3.499630e-01
3.757030e-01
4.062950e-01
4.417390e-01
3.191920e-01
3.382090e-01
3.626440e-01
3.924990e-01
4.277720e-01
3.075030e-01
3.243100e-01
3.470860e-01
3.758310e-01
4.105460e-01
2.940090e-01
3.082660e-01
3.290280e-01
3.562930e-01
3.900620e-01
2.787090e-01
2.900790e-01
3.084700e-01
3.338840e-01
3.663200e-01
4.417390e-01
4.805980e-01
5.226930e-01
5.680240e-01
6.165910e-01
4.277720e-01
4.650740e-01
5.057770e-01
5.498800e-01
5.973840e-01
4.105460e-01
4.448440e-01
4.828720e-01
5.246300e-01
5.701200e-01
3.900620e-01
4.199070e-01
4.539770e-01
4.922750e-01
5.347990e-01
3.663200e-01
3.902630e-01
4.190940e-01
4.528140e-01
4.914210e-01
6.165910e-01
6.897400e-01
7.595230e-01
8.259380e-01
8.889870e-01
5.973840e-01
6.730360e-01
7.441780e-01
8.108110e-01
8.729340e-01
5.701200e-01
6.463720e-01
7.162240e-01
7.796740e-01
8.367240e-01
5.347990e-01
6.097500e-01
6.756600e-01
7.325290e-01
7.803580e-01
4.914210e-01
5.631690e-01
6.224870e-01
6.693760e-01
7.038350e-01
8.889870e-01
9.751880e-01
1.050250e+00
1.114170e+00
1.166940e+00
8.729340e-01
9.626570e-01
1.041290e+00
1.108830e+00
1.165280e+00
8.367240e-01
9.285010e-01
1.009140e+00
1.078630e+00
1.136980e+00
7.803580e-01
8.727200e-01
9.537890e-01
1.023570e+00
1.082050e+00
7.038350e-01
7.953150e-01
8.752480e-01
9.436330e-01
1.000470e+00
1.166940e+00
1.190000e+00
1.201970e+00
1.202850e+00
1.192660e+00
1.165280e+00
1.192890e+00
1.210930e+00
1.219420e+00
1.218360e+00
1.136980e+00
1.167040e+00
1.189870e+00
1.205500e+00
1.213920e+00
1.082050e+00
1.112450e+00
1.138790e+00
1.161080e+00
1.179320e+00
1.000470e+00
1.029120e+00
1.057690e+00
1.086170e+00
1.114570e+00
1.192660e+00
1.146880e+00
1.086660e+00
1.012010e+00
9.229200e-01
1.218360e+00
1.170390e+00
1.113130e+00
1.046590e+00
9.707470e-01
1.213920e+00
1.166550e+00
1.114000e+00
1.056280e+00
9.933780e-01
1.179320e+00
1.135340e+00
1.089270e+00
1.041090e+00
9.908140e-01
1.114570e+00
1.076780e+00
1.038920e+00
1.001020e+00
9.630540e-01
9.229200e-01
8.111390e-01
7.022200e-01
5.961640e-01
4.929710e-01
9.707470e-01
8.739880e-01
7.743720e-01
6.718980e-01
5.665680e-01
9.933780e-01
9.110270e-01
8.215370e-01
7.249090e-01
6.211420e-01
9.908140e-01
9.222570e-01
8.437180e-01
7.551970e-01
6.566950e-01
9.630540e-01
9.076760e-01
8.409120e-01
7.627620e-01
6.732260e-01
4.929710e-01
4.129580e-01
3.515490e-01
3.087440e-01
2.845430e-01
5.665680e-01
4.841900e-01
4.175170e-01
3.665470e-01
3.312800e-01
6.211420e-01
5.401900e-01
4.714600e-01
4.149530e-01
3.706690e-01
6.566950e-01
5.809560e-01
5.133780e-01
4.539620e-01
4.027080e-01
6.732260e-01
6.064890e-01
5.432720e-01
4.835750e-01
4.273990e-01
2.845430e-01
2.690360e-01
2.553510e-01
2.434870e-01
2.334460e-01
3.312800e-01
3.058910e-01
2.838410e-01
2.651320e-01
2.497630e-01
3.706690e-01
3.365790e-01
3.070980e-01
2.822270e-01
2.619640e-01
4.027080e-01
3.611000e-01
3.251210e-01
2.947700e-01
2.700490e-01
4.273990e-01
3.794540e-01
3.379090e-01
3.027640e-01
2.740190e-01
2.334460e-01
2.227400e-01
2.116380e-01
2.001380e-01
1.882410e-01
2.497630e-01
2.358260e-01
2.220230e-01
2.083530e-01
1.948160e-01
2.619640e-01
2.453510e-01
2.293450e-01
2.139470e-01
1.991560e-01
2.700490e-01
2.513140e-01
2.336050e-01
2.169200e-01
2.012610e-01
2.740190e-01
2.537170e-01
2.348020e-01
2.172730e-01
2.011310e-01
1.882410e-01
1.800820e-01
1.719310e-01
1.637880e-01
1.556520e-01
1.948160e-01
1.852710e-01
1.760910e-01
1.672750e-01
1.588240e-01
1.991560e-01
1.884680e-01
1.784680e-01
1.691590e-01
1.605400e-01
2.012610e-01
1.896720e-01
1.790650e-01
1.694400e-01
1.607970e-01
2.011310e-01
1.888840e-01
1.778790e-01
1.681170e-01
1.595980e-01
1.556520e-01
1.479340e-01
1.411550e-01
1.353150e-01
1.304140e-01
1.588240e-01
1.508070e-01
1.438360e-01
1.379130e-01
1.330360e-01
1.605400e-01
1.523540e-01
1.452950e-01
1.393620e-01
1.345570e-01
1.607970e-01
1.525750e-01
1.455300e-01
1.396640e-01
1.349770e-01
1.595980e-01
1.514700e-01
1.445430e-01
1.388180e-01
1.342950e-01
8.939170e-02
9.285750e-02
9.603370e-02
9.892050e-02
1.015180e-01
8.740010e-02
9.062430e-02
9.356580e-02
9.622450e-02
9.860060e-02
8.530680e-02
8.828630e-02
9.100090e-02
9.345060e-02
9.563540e-02
8.311190e-02
8.584360e-02
8.833930e-02
9.059870e-02
9.262210e-02
8.081530e-02
8.329620e-02
8.558070e-02
8.766890e-02
8.956070e-02
1.015180e-01
1.040370e-01
1.064790e-01
1.088440e-01
1.111330e-01
9.860060e-02
1.008660e-01