<?xml version="1.0"?>
<VTKFile type="UnstructuredGrid" version="0.1" byte_order="LittleEndian" compressor="vtkZLibDataCompressor">
<UnstructuredGrid>
<Piece NumberOfPoints="10000" NumberOfCells="6400">
<Points>
<DataArray type="Float32" NumberOfComponents="3" format="ascii">
-3.360000e+00 0.000000e+00 0.000000e+00
-3.276000e+00 0.000000e+00 0.000000e+00
-3.192000e+00 0.000000e+00 0.000000e+00
-3.108000e+00 0.000000e+00 0.000000e+00
-3.024000e+00 0.000000e+00 0.000000e+00
-3.360000e+00 6.412500e-02 0.000000e+00
-3.276000e+00 6.412500e-02 0.000000e+00
-3.192000e+00 6.412500e-02 0.000000e+00
-3.108000e+00 6.412500e-02 0.000000e+00
-3.024000e+00 6.412500e-02 0.000000e+00
-3.360000e+00 1.282500e-01 0.000000e+00
-3.276000e+00 1.282500e-01 0.000000e+00
-3.192000e+00 1.282500e-01 0.000000e+00
-3.108000e+00 1.282500e-01 0.000000e+00
-3.024000e+00 1.282500e-01 0.000000e+00
-3.360000e+00 1.923750e-01 0.000000e+00
-3.276000e+00 1.923750e-01 0.000000e+00
-3.192000e+00 1.923750e-01 0.000000e+00
-3.108000e+00 1.923750e-01 0.000000e+00
-3.024000e+00 1.923750e-01 0.000000e+00
-3.360000e+00 2.565000e-01 0.000000e+00
-3.276000e+00 2.565000e-01 0.000000e+00
-3.192000e+00 2.565000e-01 0.000000e+00
-3.108000e+00 2.565000e-01 0.000000e+00
-3.024000e+00 2.565000e-01 0.000000e+00
-3.024000e+00 0.000000e+00 0.000000e+00
-2.940000e+00 0.000000e+00 0.000000e+00
-2.856000e+00 0.000000e+00 0.000000e+00
-2.772000e+00 0.000000e+00 0.000000e+00
-2.688000e+00 0.000000e+00 0.000000e+00
-3.024000e+00 6.412500e-02 0.000000e+00
-2.940000e+00 6.412500e-02 0.000000e+00
-2.856000e+00 6.412500e-02 0.000000e+00
-2.772000e+00 6.412500e-02 0.000000e+00
-2.688000e+00 6.412500e-02 0.000000e+00
-3.024000e+00 1.282500e-01 0.000000e+00
-2.940000e+00 1.282500e-01 0.000000e+00
-2.856000e+00 1.282500e-01 0.000000e+00
-2.772000e+00 1.282500e-01 0.000000e+00
-2.688000e+00 1.282500e-01 0.000000e+00
-3.024000e+00 1.923750e-01 0.000000e+00
-2.940000e+00 1.923750e-01 0.000000e+00
-2.856000e+00 1.923750e-01 0.000000e+00
-2.772000e+00 1.923750e-01 0.000000e+00
-2.688000e+00 1.923750e-01 0.000000e+00
-3.024000e+00 2.565000e-01 0.000000e+00
-2.940000e+00 2.565000e-01 0.000000e+00
-2.856000e+00 2.565000e-01 0.000000e+00
-2.772000e+00 2.565000e-01 0.000000e+00
-2.688000e+00 2.565000e-01 0.000000e+00
-2.688000e+00 0.000000e+00 0.000000e+00
-2.604000e+00 0.000000e+00 0.000000e+00
-2.520000e+00 0.000000e+00 0.000000e+00
-2.436000e+00 0.000000e+00 0.000000e+00
-2.352000e+00 0.000000e+00 0.000000e+00
-2.688000e+00 6.412500e-02 0.000000e+00
-2.604000e+00 6.412500e-02 0.000000e+00
-2.520000e+00 6.412500e-02 0.000000e+00
-2.436000e+00 6.412500e-02 0.000000e+00
-2.352000e+00 6.412500e-02 0.000000e+00
-2.688000e+00 1.282500e-01 0.000000e+00
-2.604000e+00 1.282500e-01 0.000000e+00
-2.520000e+00 1.282500e-01 0.000000e+00
-2.436000e+00 1.282500e-01 0.000000e+00
-2.352000e+00 1.282500e-01 0.000000e+00
-2.688000e+00 1.923750e-01 0.000000e+00
-2.604000e+00 1.923750e-01 0.000000e+00
-2.520000e+00 1.923750e-01 0.000000e+00
-2.436000e+00 1.923750e-01 0.000000e+00
-2.352000e+00 1.923750e-01 0.000000e+00
-2.688000e+00 2.565000e-01 0.000000e+00
-2.604000e+00 2.565000e-01 0.000000e+00
-2.520000e+00 2.565000e-01 0.000000e+00
-2.436000e+00 2.565000e-01 0.000000e+00
-2.352000e+00 2.565000e-01 0.000000e+00
-2.352000e+00 0.000000e+00 0.000000e+00
-2.268000e+00 0.000000e+00 0.000000e+00
-2.184000e+00 0.000000e+00 0.000000e+00
-2.100000e+00 0.000000e+00 0.000000e+00
-2.016000e+00 0.000000e+00 0.000000e+00
-2.352000e+00 6.412500e-02 0.000000e+00
-2.268000e+00 6.412500e-02 0.000000e+00
-2.184000e+00 6.412500e-02 0.000000e+00
-2.100000e+00 6.412500e-02 0.000000e+00
-2.016000e+00 6.412500e-02 0.000000e+00
-2.352000e+00 1.282500e-01 0.000000e+00
-2.268000e+00 1.282500e-01 0.000000e+00
-2.184000e+00 1.282500e-01 0.000000e+00
-2.100000e+00 1.282500e-01 0.000000e+00
-2.016000e+00 1.282500e-01 0.000000e+00
-2.352000e+00 1.923750e-01 0.000000e+00
-2.268000e+00 1.923750e-01 0.000000e+00
-2.184000e+00 1.923750e-01 0.000000e+00
-2.100000e+00 1.923750e-01 0.000000e+00
-2.016000e+00 1.923750e-01 0.000000e+00
-2.352000e+00 2.565000e-01 0.000000e+00
-2.268000e+00 2.565000e-01 0.000000e+00
-2.184000e+00 2.565000e-01 0.000000e+00
-2.100000e+00 2.565000e-01 0.000000e+00
-2.016000e+00 2.565000e-01 0.000000e+00
-2.016000e+00 0.000000e+00 0.000000e+00
-1.932000e+00 0.000000e+00 0.000000e+00
-1.848000e+00 0.000000e+00 0.000000e+00
-1.764000e+00 0.000000e+00 0.000000e+00
-1.680000e+00 0.000000e+00 0.000000e+00
-2.016000e+00 6.412500e-02 0.000000e+00
-1.932000e+00 6.412500e-02 0.000000e+00
-1.848000e+00 6.412500e-02 0.000000e+00
-1.764000e+00 6.412500e-02 0.000000e+00
-1.680000e+00 6.412500e-02 0.000000e+00
-2.016000e+00 1.282500e-01 0.000000e+00
-1.932000e+00 1.282500e-01 0.000000e+00
-1.848000e+00 1.282500e-01 0.000000e+00
-1.764000e+00 1.282500e-01 0.000000e+00
-1.680000e+00 1.282500e-01 0.000000e+00
-2.016000e+00 1.923750e-01 0.000000e+00
-1.932000e+00 1.923750e-01 0.000000e+00
-1.848000e+00 1.923750e-01 0.000000e+00
-1.764000e+00 1.923750e-01 0.000000e+00
-1.680000e+00 1.923750e-01 0.000000e+00
-2.016000e+00 2.565000e-01 0.000000e+00
-1.932000e+00 2.565000e-01 0.000000e+00
-1.848000e+00 2.565000e-01 0.000000e+00
-1.764000e+00 2.565000e-01 0.000000e+00
-1.680000e+00 2.565000e-01 0.000000e+00
-1.680000e+00 0.000000e+00 0.000000e+00
-1.596000e+00 0.000000e+00 0.000000e+00
-1.512000e+00 0.000000e+00 0.000000e+00
-1.428000e+00 0.000000e+00 0.000000e+00
-1.344000e+00 0.000000e+00 0.000000e+00
-1.680000e+00 6.412500e-02 0.000000e+00
-1.596000e+00 6.412500e-02 0.000000e+00
-1.512000e+00 6.412500e-02 0.000000e+00
-1.428000e+00 6.412500e-02 0.000000e+00
-1.344000e+00 6.412500e-02 0.000000e+00
-1.680000e+00 1.282500e-01 0.000000e+00
-1.596000e+00 1.282500e-01 0.000000e+00
-1.512000e+00 1.282500e-01 0.000000e+00
-1.428000e+00 1.282500e-01 0.000000e+00
-1.344000e+00 1.282500e-01 0.000000e+00
-1.680000e+00 1.923750e-01 0.000000e+00
-1.596000e+00 1.923750e-01 0.000000e+00
-1.512000e+00 1.923750e-01 0.000000e+00
-1.428000e+00 1.923750e-01 0.000000e+00
-1.344000e+00 1.923750e-01 0.000000e+00
-1.680000e+00 2.565000e-01 0.000000e+00
-1.596000e+00 2.565000e-01 0.000000e+00
-1.512000e+00 2.565000e-01 0.000000e+00
-1.428000e+00 2.565000e-01 0.000000e+00
-1.344000e+00 2.565000e-01 0.000000e+00
-1.344000e+00 0.000000e+00 0.000000e+00
-1.260000e+00 0.000000e+00 0.000000e+00
-1.176000e+00 0.000000e+00 0.000000e+00
-1.092000e+00 0.000000e+00 0.000000e+00
-1.008000e+00 0.000000e+00 0.000000e+00
-1.344000e+00 6.412500e-02 0.000000e+00
-1.260000e+00 6.412500e-02 0.000000e+00
-1.176000e+00 6.412500e-02 0.000000e+00
-1.092000e+00 6.412500e-02 0.000000e+00
-1.008000e+00 6.412500e-02 0.000000e+00
-1.344000e+00 1.282500e-01 0.000000e+00
-1.260000e+00 1.282500e-01 0.000000e+00
-1.176000e+00 1.282500e-01 0.000000e+00
-1.092000e+00 1.282500e-01 0.000000e+00
-1.008000e+00 1.282500e-01 0.000000e+00
-1.344000e+00 1.923750e-01 0.000000e+00
-1.260000e+00 1.923750e-01 0.000000e+00
-1.176000e+00 1.923750e-01 0.000000e+00
-1.092000e+00 1.923750e-01 0.000000e+00
-1.008000e+00 1.923750e-01 0.000000e+00
-1.344000e+00 2.565000e-01 0.000000e+00
-1.260000e+00 2.565000e-01 0.000000e+00
-1.176000e+00 2.565000e-01 0.000000e+00
-1.092000e+00 2.565000e-01 0.000000e+00
-1.008000e+00 2.565000e-01 0.000000e+00
-1.008000e+00 0.000000e+00 0.000000e+00
-9.240000e-01 0.000000e+00 0.000000e+00
-8.400000e-01 0.000000e+00 0.000000e+00
-7.560000e-01 0.000000e+00 0.000000e+00
-6.720000e-01 0.000000e+00 0.000000e+00
-1.008000e+00 6.412500e-02 0.000000e+00
-9.240000e-01 6.412500e-02 0.000000e+00
-8.400000e-01 6.412500e-02 0.000000e+00
-7.560000e-01 6.412500e-02 0.000000e+00
-6.720000e-01 6.412500e-02 0.000000e+00
-1.008000e+00 1.282500e-01 0.000000e+00
-9.240000e-01 1.282500e-01 0.000000e+00
-8.400000e-01 1.282500e-01 0.000000e+00
-7.560000e-01 1.282500e-01 0.000000e+00
-6.720000e-01 1.282500e-01 0.000000e+00
-1.008000e+00 1.923750e-01 0.000000e+00
-9.240000e-01 1.923750e-01 0.000000e+00
-8.400000e-01 1.923750e-01 0.000000e+00
-7.560000e-01 1.923750e-01 0.000000e+00
-6.720000e-01 1.923750e-01 0.000000e+00
-1.008000e+00 2.565000e-01 0.000000e+00
-9.240000e-01 2.565000e-01 0.000000e+00
-8.400000e-01 2.565000e-01 0.000000e+00
-7.560000e-01 2.565000e-01 0.000000e+00
-6.720000e-01 2.565000e-01 0.000000e+00
-6.720000e-01 0.000000e+00 0.000000e+00
-5.880000e-01 0.000000e+00 0.000000e+00
-5.040000e-01 0.000000e+00 0.000000e+00
-4.200000e-01 0.000000e+00 0.000000e+00
-3.360000e-01 0.000000e+00 0.000000e+00
-6.720000e-01 6.412500e-02 0.000000e+00
-5.880000e-01 6.412500e-02 0.000000e+00
-5.040000e-01 6.412500e-02 0.000000e+00
-4.200000e-01 6.412500e-02 0.000000e+00
-3.360000e-01 6.412500e-02 0.000000e+00
-6.720000e-01 1.282500e-01 0.000000e+00
-5.880000e-01 1.282500e-01 0.000000e+00
-5.040000e-01 1.282500e-01 0.000000e+00
-4.200000e-01 1.282500e-01 0.000000e+00
-3.360000e-01 1.282500e-01 0.000000e+00
-6.720000e-01 1.923750e-01 0.000000e+00
-5.880000e-01 1.923750e-01 0.000000e+00
-5.040000e-01 1.923750e-01 0.000000e+00
-4.200000e-01 1.923750e-01 0.000000e+00
-3.360000e-01 1.923750e-01 0.000000e+00
-6.720000e-01 2.565000e-01 0.000000e+00
-5.880000e-01 2.565000e-01 0.000000e+00
-5.040000e-01 2.565000e-01 0.000000e+00
-4.200000e-01 2.565000e-01 0.000000e+00
-3.360000e-01 2.565000e-01 0.000000e+00
-3.360000e-01 0.000000e+00 0.000000e+00
-2.520000e-01 0.000000e+00 0.000000e+00
-1.680000e-01 0.000000e+00 0.000000e+00
-8.400000e-02 0.000000e+00 0.000000e+00
-4.440890e-16 0.000000e+00 0.000000e+00
-3.360000e-01 6.412500e-02 0.000000e+00
-2.520000e-01 6.412500e-02 0.000000e+00
-1.680000e-01 6.412500e-02 0.000000e+00
-8.400000e-02 6.412500e-02 0.000000e+00
-4.440890e-16 6.412500e-02 0.000000e+00
-3.360000e-01 1.282500e-01 0.000000e+00
-2.520000e-01 1.282500e-01 0.000000e+00
-1.680000e-01 1.282500e-01 0.000000e+00
-8.400000e-02 1.282500e-01 0.000000e+00
-4.440890e-16 1.282500e-01 0.000000e+00
-3.360000e-01 1.923750e-01 0.000000e+00
-2.520000e-01 1.923750e-01 0.000000e+00
-1.680000e-01 1.923750e-01 0.000000e+00
[...]
<PointData>
<DataArray type="Float32" Name="V1" format="ascii">
0.000000e+00
0.000000e+00
0.000000e+00
0.000000e+00
0.000000e+00
6.347820e-02
5.969470e-02
5.543310e-02
5.069360e-02
4.547610e-02
1.013490e-01
9.782920e-02
9.304870e-02
8.700690e-02
7.970380e-02
1.136110e-01
1.144040e-01
1.128470e-01
1.089400e-01
1.026830e-01
1.002660e-01
1.094180e-01
1.148270e-01
1.164920e-01
1.144140e-01
0.000000e+00
0.000000e+00
0.000000e+00
0.000000e+00
0.000000e+00
4.547610e-02
3.972680e-02
3.531860e-02
3.225150e-02
3.052550e-02
7.970380e-02
7.134190e-02
6.475110e-02
5.993140e-02
5.688280e-02
1.026830e-01
9.484530e-02
8.829750e-02
8.303970e-02
7.907190e-02
1.144140e-01
1.102370e-01
1.059580e-01
1.015760e-01
9.709280e-02
0.000000e+00
0.000000e+00
0.000000e+00
0.000000e+00
0.000000e+00
3.052550e-02
2.900490e-02
2.778010e-02
2.685130e-02
2.621830e-02
5.688280e-02
5.428430e-02
5.223490e-02
5.073460e-02
4.978350e-02
7.907190e-02
7.583820e-02
7.336420e-02
7.165000e-02
7.069550e-02
9.709280e-02
9.366670e-02
9.116820e-02
8.959740e-02
8.895430e-02
0.000000e+00
0.000000e+00
0.000000e+00
0.000000e+00
0.000000e+00
2.621830e-02
2.573720e-02
2.556400e-02
2.569870e-02
2.614120e-02
4.978350e-02
4.911990e-02
4.896670e-02
4.932410e-02
5.019190e-02
7.069550e-02
7.014800e-02
7.020830e-02
7.087630e-02
7.215190e-02
8.895430e-02
8.882170e-02
8.928860e-02
9.035520e-02
9.202140e-02
0.000000e+00
0.000000e+00
0.000000e+00
0.000000e+00
0.000000e+00
2.614120e-02
2.672480e-02
2.750030e-02
2.846770e-02
2.962700e-02
5.019190e-02
5.132890e-02
5.281920e-02
5.466260e-02
5.685930e-02
7.215190e-02
7.381240e-02
7.595670e-02
7.858480e-02
8.169670e-02
9.202140e-02
9.417520e-02
9.691290e-02
1.002340e-01
1.041390e-01
0.000000e+00
0.000000e+00
0.000000e+00
0.000000e+00
0.000000e+00
2.962700e-02
3.097270e-02
3.262220e-02
3.457540e-02
3.683230e-02
5.685930e-02
5.938890e-02
6.244390e-02
6.602430e-02
7.013010e-02
8.169670e-02
8.524840e-02
8.946510e-02
9.434670e-02
9.989330e-02
1.041390e-01
1.085510e-01
1.136860e-01
1.195430e-01
1.261220e-01
0.000000e+00
0.000000e+00
0.000000e+00
0.000000e+00
0.000000e+00
3.683230e-02
3.933370e-02
4.231020e-02
4.576180e-02
4.968860e-02
7.013010e-02
7.466510e-02
8.000850e-02
8.616020e-02
9.312010e-02
9.989330e-02
1.059940e-01
1.130950e-01
1.211950e-01
1.302950e-01
1.261220e-01
1.333210e-01
1.415690e-01
1.508660e-01
1.612120e-01
0.000000e+00
0.000000e+00
0.000000e+00
0.000000e+00
0.000000e+00
4.968860e-02
5.388580e-02
5.889530e-02
6.471700e-02
7.135110e-02
9.312010e-02
1.005430e-01
1.093150e-01
1.194360e-01
1.309050e-01
1.302950e-01
1.399730e-01
1.512590e-01
1.641550e-01
1.786610e-01
1.612120e-01
1.721740e-01
1.847280e-01
1.988770e-01
2.146190e-01
0.000000e+00
0.000000e+00
0.000000e+00
0.000000e+00
0.000000e+00
7.135110e-02
7.815120e-02
8.623990e-02
9.561730e-02
1.062830e-01
1.309050e-01
1.426620e-01
1.565170e-01
1.724680e-01
1.905170e-01
1.786610e-01
1.935330e-01
2.108300e-01
2.305530e-01
2.527000e-01
2.146190e-01
2.307640e-01
2.491810e-01
2.698710e-01
2.928340e-01
0.000000e+00
0.000000e+00
0.000000e+00
0.000000e+00
0.000000e+00
1.062830e-01
1.171510e-01
1.294020e-01
1.430360e-01
1.580530e-01
1.905170e-01
2.089900e-01
2.296800e-01
2.525850e-01
2.777060e-01
2.527000e-01
2.755180e-01
3.008340e-01
3.286480e-01
3.589610e-01
2.928340e-01
3.167340e-01
3.428640e-01
3.712250e-01
4.018160e-01
0.000000e+00
0.000000e+00
0.000000e+00
0.000000e+00
0.000000e+00
1.580530e-01
1.747790e-01
1.912730e-01
2.075370e-01
2.235690e-01
2.777060e-01
3.058520e-01
3.337400e-01
3.613690e-01
3.887400e-01
3.589610e-01
3.932210e-01
4.273990e-01
4.614970e-01
4.955130e-01
4.018160e-01
4.368840e-01
4.722510e-01
5.079190e-01
5.438870e-01
0.000000e+00
0.000000e+00
0.000000e+00
0.000000e+00
0.000000e+00
2.235690e-01
2.433270e-01
2.592930e-01
2.714680e-01
2.798530e-01
3.887400e-01
4.225050e-01
4.506680e-01
4.732300e-01
4.901910e-01
4.955130e-01
5.375340e-01
5.741250e-01
6.052860e-01
6.310160e-01
5.438870e-01
5.884150e-01
6.296640e-01
6.676350e-01
7.023270e-01
0.000000e+00
0.000000e+00
0.000000e+00
0.000000e+00
0.000000e+00
2.798530e-01
2.856940e-01
2.857170e-01
2.799220e-01
2.683070e-01
4.901910e-01
5.037490e-01
5.081650e-01
5.034380e-01
4.895680e-01
6.310160e-01
6.541650e-01
6.673430e-01
6.705480e-01
6.637830e-01
7.023270e-01
7.369420e-01
7.632500e-01
7.812530e-01
7.909510e-01
0.000000e+00
0.000000e+00
0.000000e+00
0.000000e+00
0.000000e+00
2.683070e-01
2.419740e-01
2.145370e-01
1.859950e-01
1.563480e-01
4.895680e-01
4.515550e-01
4.096230e-01
3.637710e-01
3.140000e-01
6.637830e-01
6.287430e-01
5.852590e-01
5.333310e-01
4.729580e-01
7.909510e-01
7.735370e-01
7.414440e-01
6.946720e-01
6.332200e-01
0.000000e+00
0.000000e+00
0.000000e+00
0.000000e+00
0.000000e+00
1.563480e-01
1.264090e-01
9.986420e-02
7.671430e-02
5.695890e-02
3.140000e-01
2.593130e-01
2.091730e-01
1.635780e-01
1.225300e-01
4.729580e-01
3.987140e-01
3.279260e-01
2.605920e-01
1.967130e-01
6.332200e-01
5.446110e-01
4.561230e-01
3.677550e-01
2.795080e-01
0.000000e+00
0.000000e+00
0.000000e+00
0.000000e+00
0.000000e+00
5.695890e-02
4.386940e-02
3.078090e-02
1.769330e-02
4.606670e-03
1.225300e-01
9.465770e-02
6.801360e-02
4.259750e-02
1.840960e-02
1.967130e-01
1.523650e-01
1.116980e-01
7.471270e-02
4.140890e-02
2.795080e-01
2.169910e-01
1.618340e-01
1.140390e-01
7.360440e-02
0.000000e+00
0.000000e+00
0.000000e+00
0.000000e+00
0.000000e+00
4.606670e-03
-3.790180e-03
-9.128410e-03
-1.140800e-02
-1.062900e-02
1.840960e-02
2.751750e-03
-7.180120e-03
-1.138600e-02
-9.865840e-03
4.140890e-02
1.962580e-02
5.844870e-03
6.612620e-05
2.289560e-03
7.360440e-02
4.683190e-02
2.994650e-02
2.294830e-02
2.583720e-02
0.000000e+00
0.000000e+00
0.000000e+00
0.000000e+00
0.000000e+00
-1.062900e-02
-1.057430e-02
-9.345120e-03
-6.941420e-03
-3.363220e-03
-9.865840e-03
-9.482990e-03
-7.264330e-03
-3.209830e-03
2.680490e-03
2.289560e-03
3.273980e-03
6.242380e-03
1.119480e-02
1.813110e-02
2.583720e-02
2.769660e-02
3.117500e-02
3.627240e-02
4.298870e-02
0.000000e+00
0.000000e+00
0.000000e+00
0.000000e+00
0.000000e+00
-3.363220e-03
-1.151450e-03
6.718420e-04
2.106660e-03
3.153000e-03
2.680490e-03
6.284300e-03
9.166460e-03
1.132700e-02
1.276580e-02
1.813110e-02
2.230730e-02
2.548390e-02
2.766090e-02
2.883840e-02
4.298870e-02
4.691740e-02
4.962400e-02
5.110850e-02
5.137090e-02
0.000000e+00
0.000000e+00
0.000000e+00
0.000000e+00
0.000000e+00
3.153000e-03
4.325290e-03
4.122020e-03
2.543170e-03
-4.112540e-04
1.276580e-02
1.421960e-02
1.370440e-02
1.122030e-02
6.767190e-03
2.883840e-02
2.968290e-02
2.874720e-02
2.603130e-02
2.153530e-02
5.137090e-02
5.071520e-02
4.925030e-02
4.697630e-02
4.389320e-02
1.002660e-01
1.094180e-01
1.148270e-01
1.164920e-01
1.144140e-01
9.945850e-02
1.078180e-01
1.137930e-01
1.173840e-01
1.185910e-01
9.848610e-02
1.058730e-01
1.119340e-01
1.166700e-01
1.200800e-01
9.734850e-02
1.035840e-01
1.092510e-01
1.143500e-01
1.188800e-01
9.604590e-02
1.009520e-01
1.057440e-01
1.104240e-01
1.149910e-01
1.144140e-01
1.102370e-01
1.059580e-01
1.015760e-01
9.709280e-02
1.185910e-01
1.173050e-01
1.153090e-01
1.126020e-01
1.091860e-01
1.200800e-01
1.210320e-01
1.208940e-01
1.196660e-01
1.173480e-01
1.188800e-01
1.214180e-01
1.227150e-01
1.227690e-01
1.215800e-01
1.149910e-01
1.184640e-01
1.207700e-01
1.219090e-01
1.218820e-01
9.709280e-02
9.366670e-02
9.116820e-02
8.959740e-02
8.895430e-02
1.091860e-01
1.062720e-01
1.041830e-01
1.029200e-01
1.024820e-01
1.173480e-01
1.150930e-01
1.135200e-01
1.126290e-01
1.124190e-01
1.215800e-01
1.201310e-01
1.191780e-01
1.187240e-01
1.187670e-01
1.218820e-01
1.213840e-01
1.211590e-01
1.212060e-01
1.215250e-01
8.895430e-02
8.882170e-02
8.928860e-02
9.035520e-02
9.202140e-02
1.024820e-01
1.026320e-01
1.033860e-01
1.047450e-01
1.067060e-01
1.124190e-01
1.128240e-01
1.138150e-01
1.153930e-01
1.175570e-01
1.187670e-01
1.193970e-01
1.205750e-01
1.223010e-01
1.245740e-01
1.215250e-01
1.223520e-01
1.236660e-01
1.254670e-01
1.277560e-01
9.202140e-02
9.417520e-02
9.691290e-02
1.002340e-01
1.041390e-01
1.067060e-01
1.091570e-01
1.122180e-01
1.158910e-01
1.201760e-01
1.175570e-01
1.201980e-01
1.234540e-01
1.273230e-01
1.318070e-01
1.245740e-01
1.273000e-01
1.306190e-01
1.345300e-01
1.390340e-01
1.277560e-01
1.304620e-01
1.337140e-01
1.375120e-01
1.418560e-01
1.041390e-01
1.085510e-01
1.136860e-01
1.195430e-01
1.261220e-01
1.201760e-01
1.249800e-01
1.305110e-01
1.367690e-01
1.437530e-01
1.318070e-01
1.368050e-01
1.425150e-01
1.489360e-01
1.560700e-01
1.390340e-01
1.440260e-01
1.496960e-01
1.560450e-01
1.630720e-01
1.418560e-01
1.466420e-01
1.520550e-01
1.580940e-01
1.647610e-01
1.261220e-01
1.333210e-01
1.415690e-01
1.508660e-01
1.612120e-01
1.437530e-01
1.513150e-01
1.599040e-01
1.695210e-01
1.801670e-01
1.560700e-01
1.637300e-01
1.723810e-01
1.820210e-01
1.926520e-01
1.630720e-01
1.705680e-01
1.790000e-01
1.883660e-01
1.986680e-01
1.647610e-01
1.718290e-01
1.797610e-01
1.885560e-01
1.982160e-01
1.612120e-01
1.721740e-01
1.847280e-01
1.988770e-01
2.146190e-01
1.801670e-01
1.913090e-01
2.040060e-01
2.182570e-01
2.340620e-01
1.926520e-01
2.036720e-01
2.161960e-01
2.302250e-01
2.457600e-01
1.986680e-01
2.092610e-01
2.212980e-01
2.347820e-01
2.497110e-01
1.982160e-01
2.080760e-01
2.193130e-01
2.319270e-01
2.459170e-01
2.146190e-01
2.307640e-01
2.491810e-01
2.698710e-01
2.928340e-01
2.340620e-01
2.500240e-01
2.682730e-01
2.888090e-01
3.116320e-01
2.457600e-01
2.612240e-01
2.789980e-01
2.990830e-01
3.214790e-01
2.497110e-01
2.643630e-01
2.813580e-01
3.006950e-01
3.223750e-01
2.459170e-01
2.594420e-01
2.753510e-01
2.936440e-01
3.143220e-01
2.928340e-01
3.167340e-01
3.428640e-01
3.712250e-01
4.018160e-01
3.116320e-01
3.350190e-01
3.608670e-01
3.891770e-01
4.199480e-01
3.214790e-01
3.440360e-01
3.693040e-01
3.972810e-01
4.279700e-01
3.223750e-01
3.437860e-01
3.681740e-01
3.955380e-01
4.258800e-01
3.143220e-01
3.342690e-01
3.574770e-01
3.839480e-01
4.136800e-01
4.018160e-01
4.368840e-01
4.722510e-01
5.079190e-01
5.438870e-01
4.199480e-01
4.551410e-01
4.910700e-01
5.277360e-01
5.651390e-01
4.279700e-01
4.629490e-01
4.990740e-01
5.363420e-01
5.747550e-01
4.258800e-01
4.603090e-01
4.962610e-01
5.337360e-01
5.727350e-01
4.136800e-01
4.472200e-01
4.826330e-01
5.199190e-01
5.590790e-01
5.438870e-01
5.884150e-01
6.296640e-01
6.676350e-01
7.023270e-01
5.651390e-01
6.126480e-01
6.572530e-01
6.989530e-01
7.377480e-01
5.747550e-01
6.249640e-01
6.725380e-01
7.174760e-01
7.597790e-01
5.727350e-01
6.253630e-01
6.755200e-01
7.232050e-01
7.684180e-01
5.590790e-01
6.138450e-01
6.661990e-01
7.161390e-01
7.636670e-01
7.023270e-01
7.369420e-01
7.632500e-01
7.812530e-01
7.909510e-01
7.377480e-01
7.798410e-01
8.142600e-01
8.410050e-01
8.600780e-01
7.597790e-01
8.086500e-01
8.501710e-01
8.843390e-01
9.111570e-01
7.684180e-01
8.233710e-01
8.709830e-01
9.112560e-01
9.441880e-01
7.636670e-01
8.240020e-01
8.766970e-01
9.217540e-01
9.591720e-01
7.909510e-01
7.735370e-01
7.414440e-01
6.946720e-01
6.332200e-01
8.600780e-01
8.559540e-01
8.381020e-01
8.065200e-01
7.612100e-01
9.111570e-01
9.170650e-01
9.104970e-01
8.914530e-01
8.599320e-01
9.441880e-01
9.568700e-01
9.586310e-01
9.494700e-01
9.293870e-01
9.591720e-01
9.753700e-01
9.825030e-01
9.805710e-01
9.695740e-01
6.332200e-01
5.446110e-01
4.561230e-01
3.677550e-01
2.795080e-01
7.612100e-01
6.774680e-01
5.861510e-01
4.872610e-01
3.807970e-01
8.599320e-01
7.849200e-01
6.964980e-01
5.946650e-01
4.794210e-01
9.293870e-01
8.669690e-01
7.871620e-01
6.899660e-01
5.753820e-01
9.695740e-01
9.236130e-01
8.581430e-01
7.731650e-01
6.686780e-01
2.795080e-01
2.169910e-01
1.618340e-01
1.140390e-01
7.360440e-02
3.807970e-01
2.997710e-01
2.287360e-01
1.676900e-01
1.166350e-01
4.794210e-01
3.846860e-01
3.006490e-01
2.273110e-01
1.646720e-01
5.753820e-01
4.717360e-01
3.775760e-01
2.929020e-01
2.177130e-01
6.686780e-01
5.609200e-01
4.595150e-01
3.644620e-01
2.757610e-01
7.360440e-02
4.683190e-02
2.994650e-02
2.294830e-02
2.583720e-02
1.166350e-01
8.250950e-02
6.021680e-02
4.975720e-02
5.113070e-02
1.646720e-01
1.225280e-01
9.396410e-02
7.897990e-02
7.757530e-02
2.177130e-01
1.668880e-01
1.311890e-01
1.106160e-01
1.051710e-01
2.757610e-01
2.155880e-01
1.718900e-01
1.446670e-01
1.339180e-01
2.583720e-02
2.769660e-02
3.117500e-02
3.627240e-02
4.298870e-02
5.113070e-02
5.226710e-02
5.516690e-02
5.983020e-02
6.625690e-02
7.757530e-02
7.685170e-02
7.828740e-02
8.188250e-02
8.763680e-02
1.051710e-01
1.014510e-01
1.005370e-01
1.024290e-01
1.071280e-01
1.339180e-01
1.260640e-01
1.219150e-01
1.214710e-01
1.247310e-01
4.298870e-02
4.691740e-02
4.962400e-02
5.110850e-02
5.137090e-02
6.625690e-02
6.958940e-02
7.153820e-02
7.210330e-02
7.128470e-02
8.763680e-02
9.020260e-02
9.127250e-02
9.084670e-02
8.892500e-02
1.071280e-01
1.087570e-01
1.088270e-01
1.073390e-01
1.042920e-01
1.247310e-01
1.252520e-01
1.242020e-01
1.215790e-01
1.173850e-01
5.137090e-02
5.071520e-02
4.925030e-02
4.697630e-02
4.389320e-02
7.128470e-02
6.999870e-02
6.796940e-02
6.519670e-02
6.168060e-02
8.892500e-02
8.694210e-02
8.431660e-02
8.104840e-02
7.713750e-02
1.042920e-01
1.015450e-01
9.829190e-02
9.453140e-02
9.026390e-02
1.173850e-01
1.138090e-01
1.098950e-01
1.056460e-01
1.010600e-01
9.604590e-02
1.009520e-01
1.057440e-01
1.104240e-01
1.149910e-01
9.458900e-02
9.897470e-02
1.033030e-01
1.075740e-01
1.117880e-01
9.299440e-02
9.699750e-02
1.009300e-01
1.047930e-01
1.085850e-01
9.126190e-02
9.501990e-02
9.862590e-02
1.020800e-01
1.053820e-01
8.939170e-02
9.304200e-02
9.638980e-02
9.943520e-02
1.021780e-01
1.149910e-01
1.184640e-01
1.207700e-01
1.219090e-01
1.218820e-01
1.117880e-01
1.152770e-01
1.178430e-01
1.194850e-01
1.202040e-01
1.085850e-01
1.119260e-01
1.145720e-01
1.165220e-01
1.177780e-01
1.053820e-01
1.084090e-01
1.109550e-01
1.130200e-01
1.146030e-01
1.021780e-01
1.047270e-01
1.069940e-01
1.089790e-01
1.106810e-01
1.218820e-01
1.213840e-01
1.211590e-01
1.212060e-01
1.215250e-01
1.202040e-01
1.204060e-01
1.207560e-01
1.212520e-01
1.218960e-01
1.177780e-01
1.185320e-01
1.193440e-01
1.202160e-01
1.211470e-01
1.146030e-01
1.157600e-01
1.169250e-01
1.180980e-01
1.192790e-01
1.106810e-01
1.120920e-01
1.134970e-01
1.148970e-01
1.162910e-01
1.215250e-01
1.223520e-01
1.236660e-01
1.254670e-01
1.277560e-01
1.218960e-01
1.229310e-01
1.243880e-01
1.262660e-01
1.285650e-01
1.211470e-01
1.223730e-01
1.239590e-01
1.259040e-01
1.282090e-01
1.192790e-01
1.206770e-01
1.223780e-01
1.243810e-01
1.266860e-01
1.162910e-01
1.178450e-01
1.196470e-01
1.216980e-01
1.239970e-01
1.277560e-01
1.304620e-01
1.337140e-01
1.375120e-01
1.418560e-01
1.285650e-01
1.312430e-01
1.344250e-01
1.381120e-01
1.423030e-01
1.282090e-01
1.308530e-01
1.339600e-01
1.375290e-01
1.415620e-01
1.266860e-01
1.292910e-01
1.323170e-01
1.357640e-01
1.396330e-01
1.239970e-01
1.265570e-01
1.294970e-01
1.328170e-01
1.365170e-01
1.418560e-01
1.466420e-01
1.520550e-01
1.580940e-01
1.647610e-01
1.423030e-01
1.468900e-01
1.520690e-01
1.578390e-01
1.642020e-01
1.415620e-01
1.459450e-01
1.508860e-01
1.563840e-01
1.624380e-01
1.396330e-01
1.438090e-01
1.485070e-01
1.537270e-01
1.594700e-01
1.365170e-01
1.404800e-01
1.449310e-01
1.498690e-01
1.552960e-01
1.647610e-01
1.718290e-01
1.797610e-01
1.885560e-01
1.982160e-01
1.642020e-01
1.709120e-01
1.784480e-01
1.868080e-01
1.959940e-01
1.624380e-01
1.687870e-01
1.759210e-01
1.838390e-01
1.925420e-01
1.594700e-01
1.654540e-01
1.721800e-01
1.796490e-01
1.878600e-01
1.552960e-01
1.609120e-01
1.672260e-01
1.742380e-01
1.819490e-01
1.982160e-01
2.080760e-01
2.193130e-01
2.319270e-01
2.459170e-01
1.959940e-01
2.053140e-01
2.159790e-01
2.279890e-01
2.413430e-01
1.925420e-01
2.013110e-01
2.113810e-01
2.227520e-01
2.354230e-01
1.878600e-01
1.960680e-01
2.055200e-01
2.162160e-01
2.281580e-01
1.819490e-01
1.895840e-01
1.983950e-01
2.083830e-01
2.195460e-01
2.459170e-01
2.594420e-01
2.753510e-01
2.936440e-01
3.143220e-01
2.413430e-01
2.540560e-01
2.692270e-01
2.868560e-01
3.069430e-01
2.354230e-01
2.472850e-01
2.616330e-01
2.784680e-01
2.977900e-01
2.281580e-01
2.391280e-01
2.525690e-01
2.684810e-01
2.868630e-01
2.195460e-01
2.295860e-01
2.420340e-01
2.568930e-01
2.741610e-01
3.143220e-01
3.342690e-01
3.574770e-01
3.839480e-01
4.136800e-01
3.069430e-01
3.256660e-01
3.479960e-01
3.739340e-01
4.034800e-01
2.977900e-01
3.150320e-01
3.362200e-01
3.613560e-01
3.904380e-01
2.868630e-01
3.023660e-01
3.221490e-01
3.462120e-01
3.745550e-01
2.741610e-01
2.876680e-01
3.057820e-01
3.285030e-01
3.558310e-01
4.136800e-01
4.472200e-01
4.826330e-01
5.199190e-01
5.590790e-01
4.034800e-01
4.361210e-01
4.710050e-01
5.081300e-01
5.474980e-01
3.904380e-01
4.215170e-01
4.551950e-01
4.914700e-01
5.303440e-01
3.745550e-01
4.034080e-01
4.352020e-01
4.699390e-01
5.076170e-01
3.558310e-01
3.817930e-01
4.110280e-01
4.435360e-01
4.793180e-01
5.590790e-01
6.138450e-01
6.661990e-01
7.161390e-01
7.636670e-01
5.474980e-01
6.046730e-01
6.590600e-01
7.106600e-01
7.594730e-01
5.303440e-01
5.890070e-01
6.441960e-01
6.959120e-01
7.441540e-01
5.076170e-01
5.668480e-01
6.216080e-01
6.718960e-01
7.177120e-01
4.793180e-01
5.381960e-01
5.912940e-01
6.386110e-01
6.801470e-01
7.636670e-01
8.240020e-01
8.766970e-01
9.217540e-01
9.591720e-01
7.594730e-01
8.255230e-01
8.831680e-01
9.324090e-01
9.732450e-01
7.441540e-01
8.143070e-01
8.755060e-01
9.277510e-01
9.710410e-01
7.177120e-01
7.903560e-01
8.537120e-01
9.077800e-01
9.525610e-01
6.801470e-01
7.536690e-01
8.177860e-01
8.724970e-01
9.178040e-01
9.591720e-01
9.753700e-01
9.825030e-01
9.805710e-01
9.695740e-01
9.732450e-01
9.926090e-01
1.003000e+00
1.004420e+00
9.968630e-01
9.710410e-01
9.929250e-01
1.006520e+00
1.011820e+00
1.008820e+00
9.525610e-01
9.763170e-01
9.930510e-01
1.002760e+00
1.005450e+00
9.178040e-01
9.427850e-01
9.626050e-01
9.772620e-01
9.867570e-01
9.695740e-01
9.236130e-01
8.581430e-01
7.731650e-01
6.686780e-01
9.968630e-01
9.556610e-01
8.984020e-01
8.250870e-01
7.357130e-01
1.008820e+00
9.709190e-01
9.207420e-01
8.582920e-01
7.835690e-01
1.005450e+00
9.693860e-01
9.251610e-01
8.727810e-01
8.122450e-01
9.867570e-01
9.510620e-01
9.116600e-01
8.685530e-01
8.217410e-01
6.686780e-01
5.609200e-01
4.595150e-01
3.644620e-01
2.757610e-01
7.357130e-01
6.307720e-01
5.283270e-01
4.283800e-01
3.309300e-01
7.835690e-01
6.847730e-01
5.845830e-01
4.830010e-01
3.800250e-01
8.122450e-01
7.229230e-01
6.282830e-01
5.283240e-01
4.230470e-01
8.217410e-01
7.452230e-01
6.594270e-01
5.643510e-01
4.599960e-01
2.757610e-01
2.155880e-01
1.718900e-01
1.446670e-01
1.339180e-01
3.309300e-01
2.655980e-01
2.160280e-01
1.822190e-01
1.641720e-01
3.800250e-01
3.117110e-01
2.579700e-01
2.188020e-01
1.942050e-01
4.230470e-01
3.539290e-01
2.977180e-01
2.544140e-01
2.240160e-01
4.599960e-01
3.922500e-01
3.352700e-01
2.890550e-01
2.536050e-01
1.339180e-01
1.260640e-01
1.219150e-01
1.214710e-01
1.247310e-01
1.641720e-01
1.506410e-01
1.420900e-01
1.385190e-01
1.399280e-01
1.942050e-01
1.750260e-01
1.619100e-01
1.548590e-01
1.538710e-01
2.240160e-01
1.992180e-01
1.813760e-01
1.704890e-01
1.665580e-01
2.536050e-01
2.232190e-01
2.004870e-01
1.854110e-01
1.779900e-01
1.247310e-01
1.252520e-01
1.242020e-01
1.215790e-01
1.173850e-01
1.399280e-01
1.394730e-01
1.373470e-01
1.335520e-01
1.280860e-01
1.538710e-01
1.521970e-01
1.488550e-01
1.438440e-01
1.371640e-01
1.665580e-01
1.634250e-01
1.587250e-01
1.524560e-01
1.446190e-01
1.779900e-01
1.731570e-01
1.669560e-01
1.593880e-01
1.504520e-01
1.173850e-01
1.138090e-01
1.098950e-01
1.056460e-01
1.010600e-01
1.280860e-01
1.234650e-01
1.188330e-01
1.141930e-01
1.095430e-01
1.371640e-01
1.315190e-01
1.261980e-01
1.211990e-01
1.165220e-01
1.446190e-01
1.379730e-01
1.319880e-01
1.266640e-01
1.220000e-01
1.504520e-01
1.428260e-01
1.362050e-01
1.305870e-01
1.259740e-01
8.939170e-02
9.304200e-02
9.638980e-02
9.943520e-02
1.021780e-01
8.740010e-02
9.078880e-02
9.385950e-02
9.661210e-02
9.904660e-02
8.530680e-02
8.843180e-02
9.123630e-02
9.372030e-02
9.588370e-02
8.311190e-02
8.597100e-02
8.852030e-02
9.075980e-02
9.268940e-02
8.081530e-02
8.340630e-02
8.571140e-02
8.773060e-02
8.946380e-02
1.021780e-01
1.047270e-01
1.069940e-01
1.089790e-01
1.106810e-01
9.904660e-02
1.012480e-01