<?xml version="1.0"?>
<VTKFile type="UnstructuredGrid" version="0.1" byte_order="LittleEndian" compressor="vtkZLibDataCompressor">
<UnstructuredGrid>
<Piece NumberOfPoints="10000" NumberOfCells="6400">
<Points>
<DataArray type="Float32" NumberOfComponents="3" format="ascii">
-3.360000e+00 0.000000e+00 0.000000e+00
-3.276000e+00 0.000000e+00 0.000000e+00
-3.192000e+00 0.000000e+00 0.000000e+00
-3.108000e+00 0.000000e+00 0.000000e+00
-3.024000e+00 0.000000e+00 0.000000e+00
-3.360000e+00 6.412500e-02 0.000000e+00
-3.276000e+00 6.412500e-02 0.000000e+00
-3.192000e+00 6.412500e-02 0.000000e+00
-3.108000e+00 6.412500e-02 0.000000e+00
-3.024000e+00 6.412500e-02 0.000000e+00
-3.360000e+00 1.282500e-01 0.000000e+00
-3.276000e+00 1.282500e-01 0.000000e+00
-3.192000e+00 1.282500e-01 0.000000e+00
-3.108000e+00 1.282500e-01 0.000000e+00
-3.024000e+00 1.282500e-01 0.000000e+00
-3.360000e+00 1.923750e-01 0.000000e+00
-3.276000e+00 1.923750e-01 0.000000e+00
-3.192000e+00 1.923750e-01 0.000000e+00
-3.108000e+00 1.923750e-01 0.000000e+00
-3.024000e+00 1.923750e-01 0.000000e+00
-3.360000e+00 2.565000e-01 0.000000e+00
-3.276000e+00 2.565000e-01 0.000000e+00
-3.192000e+00 2.565000e-01 0.000000e+00
-3.108000e+00 2.565000e-01 0.000000e+00
-3.024000e+00 2.565000e-01 0.000000e+00
-3.024000e+00 0.000000e+00 0.000000e+00
-2.940000e+00 0.000000e+00 0.000000e+00
-2.856000e+00 0.000000e+00 0.000000e+00
-2.772000e+00 0.000000e+00 0.000000e+00
-2.688000e+00 0.000000e+00 0.000000e+00
-3.024000e+00 6.412500e-02 0.000000e+00
-2.940000e+00 6.412500e-02 0.000000e+00
-2.856000e+00 6.412500e-02 0.000000e+00
-2.772000e+00 6.412500e-02 0.000000e+00
-2.688000e+00 6.412500e-02 0.000000e+00
-3.024000e+00 1.282500e-01 0.000000e+00
-2.940000e+00 1.282500e-01 0.000000e+00
-2.856000e+00 1.282500e-01 0.000000e+00
-2.772000e+00 1.282500e-01 0.000000e+00
-2.688000e+00 1.282500e-01 0.000000e+00
-3.024000e+00 1.923750e-01 0.000000e+00
-2.940000e+00 1.923750e-01 0.000000e+00
-2.856000e+00 1.923750e-01 0.000000e+00
-2.772000e+00 1.923750e-01 0.000000e+00
-2.688000e+00 1.923750e-01 0.000000e+00
-3.024000e+00 2.565000e-01 0.000000e+00
-2.940000e+00 2.565000e-01 0.000000e+00
-2.856000e+00 2.565000e-01 0.000000e+00
-2.772000e+00 2.565000e-01 0.000000e+00
-2.688000e+00 2.565000e-01 0.000000e+00
-2.688000e+00 0.000000e+00 0.000000e+00
-2.604000e+00 0.000000e+00 0.000000e+00
-2.520000e+00 0.000000e+00 0.000000e+00
-2.436000e+00 0.000000e+00 0.000000e+00
-2.352000e+00 0.000000e+00 0.000000e+00
-2.688000e+00 6.412500e-02 0.000000e+00
-2.604000e+00 6.412500e-02 0.000000e+00
-2.520000e+00 6.412500e-02 0.000000e+00
-2.436000e+00 6.412500e-02 0.000000e+00
-2.352000e+00 6.412500e-02 0.000000e+00
-2.688000e+00 1.282500e-01 0.000000e+00
-2.604000e+00 1.282500e-01 0.000000e+00
-2.520000e+00 1.282500e-01 0.000000e+00
-2.436000e+00 1.282500e-01 0.000000e+00
-2.352000e+00 1.282500e-01 0.000000e+00
-2.688000e+00 1.923750e-01 0.000000e+00
-2.604000e+00 1.923750e-01 0.000000e+00
-2.520000e+00 1.923750e-01 0.000000e+00
-2.436000e+00 1.923750e-01 0.000000e+00
-2.352000e+00 1.923750e-01 0.000000e+00
-2.688000e+00 2.565000e-01 0.000000e+00
-2.604000e+00 2.565000e-01 0.000000e+00
-2.520000e+00 2.565000e-01 0.000000e+00
-2.436000e+00 2.565000e-01 0.000000e+00
-2.352000e+00 2.565000e-01 0.000000e+00
-2.352000e+00 0.000000e+00 0.000000e+00
-2.268000e+00 0.000000e+00 0.000000e+00
-2.184000e+00 0.000000e+00 0.000000e+00
-2.100000e+00 0.000000e+00 0.000000e+00
-2.016000e+00 0.000000e+00 0.000000e+00
-2.352000e+00 6.412500e-02 0.000000e+00
-2.268000e+00 6.412500e-02 0.000000e+00
-2.184000e+00 6.412500e-02 0.000000e+00
-2.100000e+00 6.412500e-02 0.000000e+00
-2.016000e+00 6.412500e-02 0.000000e+00
-2.352000e+00 1.282500e-01 0.000000e+00
-2.268000e+00 1.282500e-01 0.000000e+00
-2.184000e+00 1.282500e-01 0.000000e+00
-2.100000e+00 1.282500e-01 0.000000e+00
-2.016000e+00 1.282500e-01 0.000000e+00
-2.352000e+00 1.923750e-01 0.000000e+00
-2.268000e+00 1.923750e-01 0.000000e+00
-2.184000e+00 1.923750e-01 0.000000e+00
-2.100000e+00 1.923750e-01 0.000000e+00
-2.016000e+00 1.923750e-01 0.000000e+00
-2.352000e+00 2.565000e-01 0.000000e+00
-2.268000e+00 2.565000e-01 0.000000e+00
-2.184000e+00 2.565000e-01 0.000000e+00
-2.100000e+00 2.565000e-01 0.000000e+00
-2.016000e+00 2.565000e-01 0.000000e+00
-2.016000e+00 0.000000e+00 0.000000e+00
-1.932000e+00 0.000000e+00 0.000000e+00
-1.848000e+00 0.000000e+00 0.000000e+00
-1.764000e+00 0.000000e+00 0.000000e+00
-1.680000e+00 0.000000e+00 0.000000e+00
-2.016000e+00 6.412500e-02 0.000000e+00
-1.932000e+00 6.412500e-02 0.000000e+00
-1.848000e+00 6.412500e-02 0.000000e+00
-1.764000e+00 6.412500e-02 0.000000e+00
-1.680000e+00 6.412500e-02 0.000000e+00
-2.016000e+00 1.282500e-01 0.000000e+00
-1.932000e+00 1.282500e-01 0.000000e+00
-1.848000e+00 1.282500e-01 0.000000e+00
-1.764000e+00 1.282500e-01 0.000000e+00
-1.680000e+00 1.282500e-01 0.000000e+00
-2.016000e+00 1.923750e-01 0.000000e+00
-1.932000e+00 1.923750e-01 0.000000e+00
-1.848000e+00 1.923750e-01 0.000000e+00
-1.764000e+00 1.923750e-01 0.000000e+00
-1.680000e+00 1.923750e-01 0.000000e+00
-2.016000e+00 2.565000e-01 0.000000e+00
-1.932000e+00 2.565000e-01 0.000000e+00
-1.848000e+00 2.565000e-01 0.000000e+00
-1.764000e+00 2.565000e-01 0.000000e+00
-1.680000e+00 2.565000e-01 0.000000e+00
-1.680000e+00 0.000000e+00 0.000000e+00
-1.596000e+00 0.000000e+00 0.000000e+00
-1.512000e+00 0.000000e+00 0.000000e+00
-1.428000e+00 0.000000e+00 0.000000e+00
-1.344000e+00 0.000000e+00 0.000000e+00
-1.680000e+00 6.412500e-02 0.000000e+00
-1.596000e+00 6.412500e-02 0.000000e+00
-1.512000e+00 6.412500e-02 0.000000e+00
-1.428000e+00 6.412500e-02 0.000000e+00
-1.344000e+00 6.412500e-02 0.000000e+00
-1.680000e+00 1.282500e-01 0.000000e+00
-1.596000e+00 1.282500e-01 0.000000e+00
-1.512000e+00 1.282500e-01 0.000000e+00
-1.428000e+00 1.282500e-01 0.000000e+00
-1.344000e+00 1.282500e-01 0.000000e+00
-1.680000e+00 1.923750e-01 0.000000e+00
-1.596000e+00 1.923750e-01 0.000000e+00
-1.512000e+00 1.923750e-01 0.000000e+00
-1.428000e+00 1.923750e-01 0.000000e+00
-1.344000e+00 1.923750e-01 0.000000e+00
-1.680000e+00 2.565000e-01 0.000000e+00
-1.596000e+00 2.565000e-01 0.000000e+00
-1.512000e+00 2.565000e-01 0.000000e+00
-1.428000e+00 2.565000e-01 0.000000e+00
-1.344000e+00 2.565000e-01 0.000000e+00
-1.344000e+00 0.000000e+00 0.000000e+00
-1.260000e+00 0.000000e+00 0.000000e+00
-1.176000e+00 0.000000e+00 0.000000e+00
-1.092000e+00 0.000000e+00 0.000000e+00
-1.008000e+00 0.000000e+00 0.000000e+00
-1.344000e+00 6.412500e-02 0.000000e+00
-1.260000e+00 6.412500e-02 0.000000e+00
-1.176000e+00 6.412500e-02 0.000000e+00
-1.092000e+00 6.412500e-02 0.000000e+00
-1.008000e+00 6.412500e-02 0.000000e+00
-1.344000e+00 1.282500e-01 0.000000e+00
-1.260000e+00 1.282500e-01 0.000000e+00
-1.176000e+00 1.282500e-01 0.000000e+00
-1.092000e+00 1.282500e-01 0.000000e+00
-1.008000e+00 1.282500e-01 0.000000e+00
-1.344000e+00 1.923750e-01 0.000000e+00
-1.260000e+00 1.923750e-01 0.000000e+00
-1.176000e+00 1.923750e-01 0.000000e+00
-1.092000e+00 1.923750e-01 0.000000e+00
-1.008000e+00 1.923750e-01 0.000000e+00
-1.344000e+00 2.565000e-01 0.000000e+00
-1.260000e+00 2.565000e-01 0.000000e+00
-1.176000e+00 2.565000e-01 0.000000e+00
-1.092000e+00 2.565000e-01 0.000000e+00
-1.008000e+00 2.565000e-01 0.000000e+00
-1.008000e+00 0.000000e+00 0.000000e+00
-9.240000e-01 0.000000e+00 0.000000e+00
-8.400000e-01 0.000000e+00 0.000000e+00
-7.560000e-01 0.000000e+00 0.000000e+00
-6.720000e-01 0.000000e+00 0.000000e+00
-1.008000e+00 6.412500e-02 0.000000e+00
-9.240000e-01 6.412500e-02 0.000000e+00
-8.400000e-01 6.412500e-02 0.000000e+00
-7.560000e-01 6.412500e-02 0.000000e+00
-6.720000e-01 6.412500e-02 0.000000e+00
-1.008000e+00 1.282500e-01 0.000000e+00
-9.240000e-01 1.282500e-01 0.000000e+00
-8.400000e-01 1.282500e-01 0.000000e+00
-7.560000e-01 1.282500e-01 0.000000e+00
-6.720000e-01 1.282500e-01 0.000000e+00
-1.008000e+00 1.923750e-01 0.000000e+00
-9.240000e-01 1.923750e-01 0.000000e+00
-8.400000e-01 1.923750e-01 0.000000e+00
-7.560000e-01 1.923750e-01 0.000000e+00
-6.720000e-01 1.923750e-01 0.000000e+00
-1.008000e+00 2.565000e-01 0.000000e+00
-9.240000e-01 2.565000e-01 0.000000e+00
-8.400000e-01 2.565000e-01 0.000000e+00
-7.560000e-01 2.565000e-01 0.000000e+00
-6.720000e-01 2.565000e-01 0.000000e+00
-6.720000e-01 0.000000e+00 0.000000e+00
-5.880000e-01 0.000000e+00 0.000000e+00
-5.040000e-01 0.000000e+00 0.000000e+00
-4.200000e-01 0.000000e+00 0.000000e+00
-3.360000e-01 0.000000e+00 0.000000e+00
-6.720000e-01 6.412500e-02 0.000000e+00
-5.880000e-01 6.412500e-02 0.000000e+00
-5.040000e-01 6.412500e-02 0.000000e+00
-4.200000e-01 6.412500e-02 0.000000e+00
-3.360000e-01 6.412500e-02 0.000000e+00
-6.720000e-01 1.282500e-01 0.000000e+00
-5.880000e-01 1.282500e-01 0.000000e+00
-5.040000e-01 1.282500e-01 0.000000e+00
-4.200000e-01 1.282500e-01 0.000000e+00
-3.360000e-01 1.282500e-01 0.000000e+00
-6.720000e-01 1.923750e-01 0.000000e+00
-5.880000e-01 1.923750e-01 0.000000e+00
-5.040000e-01 1.923750e-01 0.000000e+00
-4.200000e-01 1.923750e-01 0.000000e+00
-3.360000e-01 1.923750e-01 0.000000e+00
-6.720000e-01 2.565000e-01 0.000000e+00
-5.880000e-01 2.565000e-01 0.000000e+00
-5.040000e-01 2.565000e-01 0.000000e+00
-4.200000e-01 2.565000e-01 0.000000e+00
-3.360000e-01 2.565000e-01 0.000000e+00
-3.360000e-01 0.000000e+00 0.000000e+00
-2.520000e-01 0.000000e+00 0.000000e+00
-1.680000e-01 0.000000e+00 0.000000e+00
-8.400000e-02 0.000000e+00 0.000000e+00
-4.440890e-16 0.000000e+00 0.000000e+00
-3.360000e-01 6.412500e-02 0.000000e+00
-2.520000e-01 6.412500e-02 0.000000e+00
-1.680000e-01 6.412500e-02 0.000000e+00
-8.400000e-02 6.412500e-02 0.000000e+00
-4.440890e-16 6.412500e-02 0.000000e+00
-3.360000e-01 1.282500e-01 0.000000e+00
-2.520000e-01 1.282500e-01 0.000000e+00
-1.680000e-01 1.282500e-01 0.000000e+00
-8.400000e-02 1.282500e-01 0.000000e+00
-4.440890e-16 1.282500e-01 0.000000e+00
-3.360000e-01 1.923750e-01 0.000000e+00
-2.520000e-01 1.923750e-01 0.000000e+00
-1.680000e-01 1.923750e-01 0.000000e+00
[...]
<PointData>
<DataArray type="Float32" Name="V1" format="ascii">
0.000000e+00
0.000000e+00
0.000000e+00
0.000000e+00
0.000000e+00
6.347820e-02
5.966270e-02
5.584660e-02
5.202990e-02
4.821260e-02
1.013490e-01
9.776210e-02
9.367570e-02
8.908950e-02
8.400340e-02
1.136110e-01
1.142980e-01
1.134870e-01
1.111790e-01
1.073720e-01
1.002660e-01
1.092710e-01
1.152810e-01
1.182980e-01
1.183190e-01
0.000000e+00
0.000000e+00
0.000000e+00
0.000000e+00
0.000000e+00
4.821260e-02
4.443480e-02
4.219940e-02
4.150630e-02
4.235550e-02
8.400340e-02
7.889190e-02
7.594670e-02
7.516790e-02
7.655540e-02
1.073720e-01
1.033710e-01
1.012420e-01
1.009850e-01
1.026000e-01
1.183190e-01
1.178730e-01
1.180850e-01
1.189570e-01
1.204880e-01
0.000000e+00
0.000000e+00
0.000000e+00
0.000000e+00
0.000000e+00
4.235550e-02
4.327310e-02
4.439870e-02
4.573230e-02
4.727390e-02
7.655540e-02
7.819730e-02
8.025830e-02
8.273850e-02
8.563790e-02
1.026000e-01
1.047720e-01
1.075790e-01
1.110190e-01
1.150920e-01
1.204880e-01
1.229990e-01
1.263600e-01
1.305730e-01
1.356360e-01
0.000000e+00
0.000000e+00
0.000000e+00
0.000000e+00
0.000000e+00
4.727390e-02
4.894250e-02
5.108770e-02
5.370960e-02
5.680830e-02
8.563790e-02
8.877180e-02
9.268260e-02
9.737030e-02
1.028350e-01
1.150920e-01
1.194880e-01
1.247850e-01
1.309820e-01
1.380800e-01
1.356360e-01
1.410910e-01
1.473940e-01
1.545450e-01
1.625430e-01
0.000000e+00
0.000000e+00
0.000000e+00
0.000000e+00
0.000000e+00
5.680830e-02
6.013450e-02
6.409890e-02
6.870140e-02
7.394200e-02
1.028350e-01
1.086930e-01
1.156280e-01
1.236390e-01
1.327260e-01
1.380800e-01
1.456770e-01
1.545880e-01
1.648130e-01
1.763530e-01
1.625430e-01
1.710840e-01
1.809780e-01
1.922230e-01
2.048220e-01
0.000000e+00
0.000000e+00
0.000000e+00
0.000000e+00
0.000000e+00
7.394200e-02
7.923880e-02
8.582070e-02
9.368760e-02
1.028390e-01
1.327260e-01
1.419020e-01
1.531790e-01
1.665550e-01
1.820310e-01
1.763530e-01
1.879910e-01
2.020740e-01
2.186010e-01
2.375730e-01
2.048220e-01
2.175040e-01
2.325060e-01
2.498270e-01
2.694680e-01
0.000000e+00
0.000000e+00
0.000000e+00
0.000000e+00
0.000000e+00
1.028390e-01
1.115190e-01
1.225170e-01
1.358330e-01
1.514670e-01
1.820310e-01
1.967350e-01
2.151440e-01
2.372600e-01
2.630810e-01
2.375730e-01
2.556460e-01
2.778820e-01
3.042810e-01
3.348420e-01
2.694680e-01
2.882550e-01
3.107310e-01
3.368960e-01
3.667510e-01
0.000000e+00
0.000000e+00
0.000000e+00
0.000000e+00
0.000000e+00
1.514670e-01
1.663670e-01
1.842450e-01
2.051010e-01
2.289360e-01
2.630810e-01
2.878530e-01
3.172740e-01
3.513450e-01
3.900640e-01
3.348420e-01
3.644580e-01
3.990870e-01
4.387300e-01
4.833850e-01
3.667510e-01
3.961830e-01
4.296850e-01
4.672570e-01
5.088990e-01
0.000000e+00
0.000000e+00
0.000000e+00
0.000000e+00
0.000000e+00
2.289360e-01
2.554730e-01
2.825930e-01
3.102950e-01
3.385810e-01
3.900640e-01
4.335670e-01
4.780280e-01
5.234490e-01
5.698280e-01
4.833850e-01
5.342820e-01
5.863070e-01
6.394590e-01
6.937400e-01
5.088990e-01
5.576180e-01
6.074280e-01
6.583280e-01
7.103190e-01
0.000000e+00
0.000000e+00
0.000000e+00
0.000000e+00
0.000000e+00
3.385810e-01
3.770980e-01
4.098310e-01
4.367800e-01
4.579460e-01
5.698280e-01
6.330540e-01
6.879770e-01
7.345960e-01
7.729110e-01
6.937400e-01
7.678690e-01
8.344380e-01
8.934470e-01
9.448970e-01
7.103190e-01
7.815420e-01
8.492140e-01
9.133340e-01
9.739020e-01
0.000000e+00
0.000000e+00
0.000000e+00
0.000000e+00
0.000000e+00
4.579460e-01
4.819740e-01
4.957890e-01
4.993910e-01
4.927800e-01
7.729110e-01
8.167000e-01
8.453670e-01
8.589150e-01
8.573420e-01
9.448970e-01
1.004180e+00
1.048730e+00
1.078570e+00
1.093690e+00
9.739020e-01
1.044410e+00
1.105890e+00
1.158360e+00
1.201810e+00
0.000000e+00
0.000000e+00
0.000000e+00
0.000000e+00
0.000000e+00
4.927800e-01
4.607170e-01
4.222330e-01
3.773260e-01
3.259970e-01
8.573420e-01
8.159630e-01
7.628410e-01
6.979780e-01
6.213720e-01
1.093690e+00
1.065740e+00
1.021830e+00
9.619560e-01
8.861260e-01
1.201810e+00
1.210040e+00
1.199190e+00
1.169260e+00
1.120260e+00
0.000000e+00
0.000000e+00
0.000000e+00
0.000000e+00
0.000000e+00
3.259970e-01
2.677060e-01
2.148020e-01
1.672860e-01
1.251570e-01
6.213720e-01
5.273580e-01
4.392150e-01
3.569420e-01
2.805410e-01
8.861260e-01
7.789560e-01
6.732370e-01
5.689690e-01
4.661520e-01
1.120260e+00
1.022500e+00
9.168690e-01
8.033660e-01
6.819900e-01
0.000000e+00
0.000000e+00
0.000000e+00
0.000000e+00
0.000000e+00
1.251570e-01
9.195250e-02
6.900650e-02
5.631890e-02
5.388960e-02
2.805410e-01
2.188490e-01
1.743520e-01
1.470500e-01
1.369430e-01
4.661520e-01
3.806880e-01
3.160350e-01
2.721920e-01
2.491600e-01
6.819900e-01
5.774710e-01
4.940570e-01
4.317470e-01
3.905410e-01
0.000000e+00
0.000000e+00
0.000000e+00
0.000000e+00
0.000000e+00
5.388960e-02
5.062440e-02
5.092750e-02
5.479880e-02
6.223840e-02
1.369430e-01
1.269690e-01
1.229990e-01
1.250310e-01
1.330670e-01
2.491600e-01
2.290350e-01
2.162140e-01
2.106970e-01
2.124850e-01
3.905410e-01
3.568200e-01
3.305720e-01
3.117970e-01
3.004940e-01
0.000000e+00
0.000000e+00
0.000000e+00
0.000000e+00
0.000000e+00
6.223840e-02
6.766060e-02
7.060080e-02
7.105900e-02
6.903520e-02
1.330670e-01
1.388720e-01
1.408890e-01
1.391170e-01
1.335550e-01
2.124850e-01
2.136360e-01
2.108650e-01
2.041730e-01
1.935590e-01
3.004940e-01
2.919500e-01
2.805280e-01
2.662270e-01
2.490480e-01
0.000000e+00
0.000000e+00
0.000000e+00
0.000000e+00
0.000000e+00
6.903520e-02
6.904570e-02
6.800300e-02
6.590680e-02
6.275730e-02
1.335550e-01
1.314270e-01
1.279230e-01
1.230420e-01
1.167850e-01
1.935590e-01
1.871450e-01
1.797610e-01
1.714070e-01
1.620820e-01
2.490480e-01
2.361990e-01
2.235160e-01
2.110000e-01
1.986500e-01
0.000000e+00
0.000000e+00
0.000000e+00
0.000000e+00
0.000000e+00
6.275730e-02
6.069000e-02
5.841440e-02
5.593050e-02
5.323830e-02
1.167850e-01
1.122430e-01
1.075020e-01
1.025610e-01
9.742210e-02
1.620820e-01
1.546580e-01
1.472610e-01
1.398930e-01
1.325520e-01
1.986500e-01
1.879360e-01
1.776940e-01
1.679240e-01
1.586270e-01
0.000000e+00
0.000000e+00
0.000000e+00
0.000000e+00
0.000000e+00
5.323830e-02
5.109010e-02
4.889280e-02
4.664660e-02
4.435150e-02
9.742210e-02
9.319730e-02
8.898190e-02
8.477590e-02
8.057940e-02
1.325520e-01
1.263220e-01
1.202670e-01
1.143880e-01
1.086840e-01
1.586270e-01
1.504630e-01
1.427490e-01
1.354820e-01
1.286650e-01
0.000000e+00
0.000000e+00
0.000000e+00
0.000000e+00
0.000000e+00
4.435150e-02
4.277530e-02
4.056780e-02
3.772910e-02
3.425890e-02
8.057940e-02
7.734170e-02
7.339320e-02
6.873400e-02
6.336400e-02
1.086840e-01
1.036990e-01
9.847600e-02
9.301470e-02
8.731530e-02
1.286650e-01
1.218470e-01
1.158160e-01
1.105710e-01
1.061130e-01
1.002660e-01
1.092710e-01
1.152810e-01
1.182980e-01
1.183190e-01
9.945850e-02
1.074770e-01
1.136550e-01
1.179900e-01
1.204830e-01
9.848610e-02
1.054050e-01
1.113600e-01
1.163510e-01
1.203780e-01
9.734850e-02
1.030540e-01
1.083980e-01
1.133820e-01
1.180050e-01
9.604590e-02
1.004230e-01
1.047690e-01
1.090820e-01
1.133630e-01
1.183190e-01
1.178730e-01
1.180850e-01
1.189570e-01
1.204880e-01
1.204830e-01
1.219760e-01
1.236750e-01
1.255800e-01
1.276910e-01
1.203780e-01
1.232540e-01
1.260310e-01
1.287110e-01
1.312930e-01
1.180050e-01
1.217060e-01
1.251550e-01
1.283510e-01
1.312950e-01
1.133630e-01
1.173330e-01
1.210450e-01
1.244990e-01
1.276960e-01
1.204880e-01
1.229990e-01
1.263600e-01
1.305730e-01
1.356360e-01
1.276910e-01
1.304830e-01
1.341050e-01
1.385550e-01
1.438340e-01
1.312930e-01
1.343370e-01
1.381520e-01
1.427380e-01
1.480950e-01
1.312950e-01
1.345610e-01
1.385030e-01
1.431230e-01
1.484190e-01
1.276960e-01
1.311540e-01
1.351580e-01
1.397080e-01
1.448050e-01
1.356360e-01
1.410910e-01
1.473940e-01
1.545450e-01
1.625430e-01
1.438340e-01
1.495630e-01
1.561160e-01
1.634960e-01
1.717010e-01
1.480950e-01
1.539280e-01
1.605560e-01
1.679780e-01
1.761940e-01
1.484190e-01
1.541880e-01
1.607120e-01
1.679910e-01
1.760240e-01
1.448050e-01
1.503420e-01
1.565850e-01
1.635350e-01
1.711910e-01
1.625430e-01
1.710840e-01
1.809780e-01
1.922230e-01
2.048220e-01
1.717010e-01
1.803730e-01
1.903610e-01
2.016650e-01
2.142850e-01
1.761940e-01
1.848240e-01
1.947140e-01
2.058630e-01
2.182710e-01
1.760240e-01
1.844380e-01
1.940360e-01
2.048160e-01
2.167800e-01
1.711910e-01
1.792150e-01
1.883260e-01
1.985260e-01
2.098130e-01
2.048220e-01
2.175040e-01
2.325060e-01
2.498270e-01
2.694680e-01
2.142850e-01
2.268890e-01
2.417680e-01
2.589220e-01
2.783500e-01
2.182710e-01
2.306170e-01
2.451590e-01
2.618960e-01
2.808280e-01
2.167800e-01
2.286890e-01
2.426790e-01
2.587500e-01
2.769030e-01
2.098130e-01
2.211050e-01
2.343290e-01
2.494850e-01
2.665730e-01
2.694680e-01
2.882550e-01
3.107310e-01
3.368960e-01
3.667510e-01
2.783500e-01
2.964690e-01
3.184510e-01
3.442950e-01
3.740010e-01
2.808280e-01
2.981190e-01
3.193870e-01
3.446320e-01
3.738540e-01
2.769030e-01
2.932060e-01
3.135410e-01
3.379090e-01
3.663090e-01
2.665730e-01
2.817280e-01
3.009120e-01
3.241240e-01
3.513660e-01
3.667510e-01
3.961830e-01
4.296850e-01
4.672570e-01
5.088990e-01
3.740010e-01
4.020790e-01
4.348960e-01
4.724520e-01
5.147460e-01
3.738540e-01
4.003340e-01
4.321370e-01
4.692620e-01
5.117100e-01
3.663090e-01
3.909480e-01
4.214070e-01
4.576890e-01
4.997910e-01
3.513660e-01
3.739190e-01
4.027070e-01
4.377300e-01
4.789880e-01
5.088990e-01
5.576180e-01
6.074280e-01
6.583280e-01
7.103190e-01
5.147460e-01
5.629180e-01
6.133060e-01
6.659090e-01
7.207280e-01
5.117100e-01
5.589460e-01
6.092800e-01
6.627110e-01
7.192410e-01
4.997910e-01
5.457010e-01
5.953490e-01
6.487340e-01
7.058560e-01
4.789880e-01
5.231840e-01
5.715140e-01
6.239780e-01
6.805750e-01
7.103190e-01
7.815420e-01
8.492140e-01
9.133340e-01
9.739020e-01
7.207280e-01
7.972330e-01
8.700570e-01
9.391990e-01
1.004660e+00
7.192410e-01
8.006140e-01
8.785070e-01
9.529190e-01
1.023850e+00
7.058560e-01
7.916860e-01
8.745650e-01
9.544920e-01
1.031470e+00
6.805750e-01
7.704490e-01
8.582300e-01
9.439180e-01
1.027510e+00
9.739020e-01
1.044410e+00
1.105890e+00
1.158360e+00
1.201810e+00
1.004660e+00
1.089010e+00
1.162630e+00
1.225510e+00
1.277670e+00
1.023850e+00
1.121450e+00
1.206730e+00
1.279680e+00
1.340310e+00
1.031470e+00
1.141730e+00
1.238200e+00
1.320860e+00
1.389730e+00
1.027510e+00
1.149850e+00
1.257040e+00
1.349060e+00
1.425940e+00
1.201810e+00
1.210040e+00
1.199190e+00
1.169260e+00
1.120260e+00
1.277670e+00
1.288650e+00
1.284660e+00
1.265670e+00
1.231710e+00
1.340310e+00
1.354030e+00
1.354870e+00
1.342840e+00
1.317920e+00
1.389730e+00
1.406170e+00
1.409840e+00
1.400750e+00
1.378890e+00
1.425940e+00
1.445070e+00
1.449560e+00
1.439410e+00
1.414610e+00
1.120260e+00
1.022500e+00
9.168690e-01
8.033660e-01
6.819900e-01
1.231710e+00
1.154120e+00
1.065490e+00
9.658240e-01
8.551130e-01
1.317920e+00
1.250450e+00
1.172160e+00
1.083040e+00
9.830800e-01
1.378890e+00
1.311500e+00
1.236870e+00
1.155000e+00
1.065890e+00
1.414610e+00
1.337250e+00
1.259620e+00
1.181720e+00
1.103550e+00
6.819900e-01
5.774710e-01
4.940570e-01
4.317470e-01
3.905410e-01
8.551130e-01
7.443190e-01
6.506050e-01
5.739690e-01
5.144120e-01
9.830800e-01
8.723180e-01
7.737870e-01
6.874870e-01
6.134190e-01
1.065890e+00
9.614660e-01
8.636030e-01
7.723010e-01
6.875620e-01
1.103550e+00
1.011760e+00
9.200530e-01
8.284120e-01
7.368410e-01
3.905410e-01
3.568200e-01
3.305720e-01
3.117970e-01
3.004940e-01
5.144120e-01
4.668480e-01
4.265120e-01
3.934050e-01
3.675260e-01
6.134190e-01
5.544440e-01
5.022260e-01
4.567650e-01
4.180610e-01
6.875620e-01
6.196090e-01
5.577150e-01
5.018780e-01
4.520980e-01
7.368410e-01
6.623440e-01
5.929780e-01
5.287420e-01
4.696370e-01
3.004940e-01
2.919500e-01
2.805280e-01
2.662270e-01
2.490480e-01
3.675260e-01
3.481950e-01
3.276860e-01
3.059990e-01
2.831350e-01
4.180610e-01
3.893030e-01
3.610330e-01
3.332520e-01
3.059590e-01
4.520980e-01
4.152750e-01
3.805700e-01
3.479860e-01
3.175200e-01
4.696370e-01
4.261100e-01
3.862980e-01
3.502010e-01
3.178190e-01
2.490480e-01
2.361990e-01
2.235160e-01
2.110000e-01
1.986500e-01
2.831350e-01
2.658450e-01
2.493910e-01
2.337710e-01
2.189860e-01
3.059590e-01
2.853550e-01
2.661430e-01
2.483240e-01
2.318970e-01
3.175200e-01
2.947280e-01
2.737740e-01
2.546590e-01
2.373820e-01
3.178190e-01
2.939640e-01
2.722830e-01
2.527760e-01
2.354410e-01
1.986500e-01
1.879360e-01
1.776940e-01
1.679240e-01
1.586270e-01
2.189860e-01
2.060680e-01
1.939480e-01
1.826280e-01
1.721080e-01
2.318970e-01
2.173710e-01
2.039250e-01
1.915610e-01
1.802760e-01
2.373820e-01
2.218460e-01
2.076260e-01
1.947210e-01
1.831310e-01
2.354410e-01
2.194930e-01
2.050490e-01
1.921090e-01
1.806730e-01
1.586270e-01
1.504630e-01
1.427490e-01
1.354820e-01
1.286650e-01
1.721080e-01
1.629610e-01
1.543570e-01
1.462960e-01
1.387780e-01
1.802760e-01
1.705240e-01
1.613870e-01
1.528660e-01
1.449600e-01
1.831310e-01
1.731520e-01
1.638390e-01
1.551920e-01
1.472100e-01
1.806730e-01
1.708460e-01
1.617130e-01
1.532740e-01
1.455290e-01
1.286650e-01
1.218470e-01
1.158160e-01
1.105710e-01
1.061130e-01
1.387780e-01
1.315370e-01
1.251380e-01
1.195830e-01
1.148700e-01
1.449600e-01
1.375190e-01
1.309380e-01
1.252170e-01
1.203570e-01
1.472100e-01
1.397930e-01
1.332140e-01
1.274750e-01
1.225740e-01
1.455290e-01
1.383590e-01
1.319680e-01
1.263550e-01
1.215220e-01
9.604590e-02
1.004230e-01
1.047690e-01
1.090820e-01
1.133630e-01
9.458900e-02
9.852090e-02
1.024610e-01
1.064110e-01
1.103690e-01
9.299440e-02
9.661720e-02
1.002440e-01
1.038750e-01
1.075110e-01
9.126190e-02
9.471220e-02
9.811690e-02
1.014760e-01
1.047900e-01
8.939170e-02
9.280590e-02
9.607960e-02
9.921270e-02
1.022050e-01
1.133630e-01
1.173330e-01
1.210450e-01
1.244990e-01
1.276960e-01
1.103690e-01
1.141970e-01
1.178780e-01
1.214140e-01
1.248030e-01
1.075110e-01
1.111560e-01
1.147550e-01
1.183070e-01
1.218120e-01
1.047900e-01
1.082120e-01
1.116750e-01
1.151770e-01
1.187200e-01
1.022050e-01
1.053630e-01
1.086370e-01
1.120250e-01
1.155290e-01
1.276960e-01
1.311540e-01
1.351580e-01
1.397080e-01
1.448050e-01
1.248030e-01
1.283940e-01
1.324550e-01
1.369850e-01
1.419850e-01
1.218120e-01
1.254810e-01
1.295520e-01
1.340250e-01
1.389010e-01
1.187200e-01
1.224140e-01
1.264500e-01
1.308290e-01
1.355500e-01
1.155290e-01
1.191920e-01
1.231480e-01
1.273950e-01
1.319350e-01
1.448050e-01
1.503420e-01
1.565850e-01
1.635350e-01
1.711910e-01
1.419850e-01
1.473670e-01
1.534180e-01
1.601390e-01
1.675300e-01
1.389010e-01
1.441010e-01
1.499300e-01
1.563890e-01
1.634780e-01
1.355500e-01
1.405440e-01
1.461220e-01
1.522850e-01
1.590330e-01
1.319350e-01
1.366950e-01
1.419920e-01
1.478260e-01
1.541960e-01
1.711910e-01
1.792150e-01
1.883260e-01
1.985260e-01
2.098130e-01
1.675300e-01
1.752440e-01
1.839850e-01
1.937540e-01
2.045500e-01
1.634780e-01
1.708320e-01
1.791500e-01
1.884330e-01
1.986800e-01
1.590330e-01
1.659790e-01
1.738220e-01
1.825630e-01
1.922020e-01
1.541960e-01
1.606840e-01
1.680010e-01
1.761450e-01
1.851160e-01
2.098130e-01
2.211050e-01
2.343290e-01
2.494850e-01
2.665730e-01
2.045500e-01
2.153130e-01
2.279040e-01
2.423230e-01
2.585690e-01
1.986800e-01
2.088110e-01
2.206690e-01
2.342540e-01
2.495670e-01
1.922020e-01
2.015970e-01
2.126220e-01
2.252790e-01
2.395670e-01
1.851160e-01
1.936710e-01
2.037650e-01
2.153970e-01
2.285690e-01
2.665730e-01
2.817280e-01
3.009120e-01
3.241240e-01
3.513660e-01
2.585690e-01
2.726620e-01
2.908240e-01
3.130550e-01
3.393540e-01
2.495670e-01
2.624670e-01
2.794330e-01
3.004660e-01
3.255650e-01
2.395670e-01
2.511410e-01
2.667370e-01
2.863570e-01
3.099980e-01
2.285690e-01
2.386850e-01
2.527380e-01
2.707280e-01
2.926550e-01
3.513660e-01
3.739190e-01
4.027070e-01
4.377300e-01
4.789880e-01
3.393540e-01
3.593060e-01
3.863550e-01
4.205000e-01
4.617410e-01
3.255650e-01
3.423900e-01
3.673250e-01
4.003710e-01
4.415260e-01
3.099980e-01
3.231700e-01
3.456180e-01
3.773430e-01
4.183440e-01
2.926550e-01
3.016460e-01
3.212330e-01
3.514160e-01
3.921950e-01
4.789880e-01
5.231840e-01
5.715140e-01
6.239780e-01
6.805750e-01
4.617410e-01
5.043340e-01
5.507170e-01
6.008910e-01
6.548560e-01
4.415260e-01
4.799030e-01
5.227120e-01
5.699530e-01
6.216270e-01
4.183440e-01
4.498930e-01
4.875000e-01
5.311640e-01
5.808860e-01
3.921950e-01
4.143030e-01
4.450790e-01
4.845230e-01
5.326350e-01
6.805750e-01
7.704490e-01
8.582300e-01
9.439180e-01
1.027510e+00
6.548560e-01
7.541020e-01
8.464320e-01
9.318480e-01
1.010350e+00
6.216270e-01
7.259830e-01
8.168980e-01
8.943730e-01
9.584080e-01
5.808860e-01
6.860930e-01
7.696280e-01
8.314930e-01
8.716870e-01
5.326350e-01
6.344320e-01
7.046230e-01
7.432080e-01
7.501880e-01
1.027510e+00
1.149850e+00
1.257040e+00
1.349060e+00
1.425940e+00
1.010350e+00
1.127930e+00
1.232120e+00
1.322930e+00
1.400360e+00
9.584080e-01
1.071540e+00
1.172530e+00
1.261380e+00
1.338080e+00
8.716870e-01
9.807060e-01
1.078280e+00
1.164410e+00
1.239090e+00
7.501880e-01
8.554140e-01
9.493590e-01
1.032030e+00
1.103410e+00
1.425940e+00
1.445070e+00
1.449560e+00
1.439410e+00
1.414610e+00
1.400360e+00
1.424020e+00
1.438450e+00
1.443660e+00
1.439660e+00
1.338080e+00
1.359540e+00
1.378270e+00
1.394270e+00
1.407540e+00
1.239090e+00
1.251630e+00
1.269000e+00
1.291210e+00
1.318260e+00
1.103410e+00
1.100300e+00
1.110660e+00
1.134500e+00
1.171830e+00
1.414610e+00
1.337250e+00
1.259620e+00
1.181720e+00
1.103550e+00
1.439660e+00
1.356500e+00
1.271330e+00
1.184150e+00
1.094950e+00
1.407540e+00
1.327070e+00
1.242840e+00
1.154850e+00
1.063100e+00
1.318260e+00
1.248960e+00
1.174150e+00
1.093820e+00
1.007980e+00
1.171830e+00
1.122180e+00
1.065260e+00
1.001070e+00
9.296110e-01
1.103550e+00
1.011760e+00
9.200530e-01
8.284120e-01
7.368410e-01
1.094950e+00
1.008360e+00
9.205040e-01
8.313850e-01
7.410020e-01
1.063100e+00
9.817320e-01
8.980230e-01
8.119690e-01
7.235700e-01
1.007980e+00
9.318820e-01
8.526090e-01
7.701630e-01
6.845440e-01
9.296110e-01
8.588100e-01
7.842620e-01
7.059670e-01
6.239250e-01
7.368410e-01
6.623440e-01
5.929780e-01
5.287420e-01
4.696370e-01
7.410020e-01
6.672620e-01
5.970140e-01
5.302600e-01
4.669990e-01
7.235700e-01
6.543460e-01
5.867280e-01
5.207170e-01
4.563120e-01
6.845440e-01
6.235970e-01
5.621200e-01
5.001130e-01
4.375760e-01
6.239250e-01
5.750150e-01
5.231900e-01
4.684490e-01
4.107930e-01
4.696370e-01
4.261100e-01
3.862980e-01
3.502010e-01
3.178190e-01
4.669990e-01
4.211240e-01
3.798110e-01
3.430600e-01
3.108700e-01
4.563120e-01
4.102260e-01
3.690800e-01
3.328750e-01
3.016110e-01
4.375760e-01
3.934160e-01
3.541070e-01
3.196480e-01
2.900400e-01
4.107930e-01
3.706940e-01
3.348890e-01
3.033770e-01
2.761590e-01
3.178190e-01
2.939640e-01
2.722830e-01
2.527760e-01
2.354410e-01
3.108700e-01
2.876000e-01
2.665060e-01
2.475890e-01
2.308490e-01
3.016110e-01
2.794420e-01
2.593370e-01
2.412960e-01
2.253180e-01
2.900400e-01
2.694920e-01
2.507780e-01
2.338970e-01
2.188490e-01
2.761590e-01
2.577500e-01
2.408270e-01
2.253910e-01
2.114420e-01
2.354410e-01
2.194930e-01
2.050490e-01
1.921090e-01
1.806730e-01
2.308490e-01
2.150580e-01
2.008440e-01
1.882040e-01
1.771400e-01
2.253180e-01
2.098470e-01
1.959960e-01
1.837630e-01
1.731510e-01
2.188490e-01
2.038590e-01
1.905050e-01
1.787870e-01
1.687060e-01
2.114420e-01
1.970940e-01
1.843710e-01
1.732750e-01
1.638050e-01
1.806730e-01
1.708460e-01
1.617130e-01
1.532740e-01
1.455290e-01
1.771400e-01
1.677290e-01
1.589650e-01
1.508490e-01
1.433810e-01
1.731510e-01
1.642060e-01
1.558520e-01
1.480890e-01
1.409170e-01
1.687060e-01
1.602770e-01
1.523730e-01
1.449940e-01
1.381380e-01
1.638050e-01
1.559440e-01
1.485300e-01
1.415640e-01
1.350450e-01
1.455290e-01
1.383590e-01
1.319680e-01
1.263550e-01
1.215220e-01
1.433810e-01
1.364450e-01
1.302790e-01
1.248820e-01
1.202550e-01
1.409170e-01
1.342240e-01
1.282940e-01
1.231270e-01
1.187220e-01
1.381380e-01
1.316960e-01
1.260120e-01
1.210880e-01
1.169220e-01
1.350450e-01
1.288600e-01
1.234340e-01
1.187660e-01
1.148570e-01
8.939170e-02
9.280590e-02
9.607960e-02
9.921270e-02
1.022050e-01
8.740010e-02
9.060450e-02
9.369080e-02
9.665910e-02
9.950930e-02
8.530680e-02
8.829620e-02
9.119500e-02
9.400320e-02
9.672100e-02
8.311190e-02
8.588100e-02
8.859200e-02
9.124510e-02
9.384020e-02
8.081530e-02
8.335890e-02
8.588200e-02
8.838480e-02
9.086710e-02
1.022050e-01
1.053630e-01
1.086370e-01
1.120250e-01
1.155290e-01
9.950930e-02
1.024770e-01
1.055950e-01