<?xml version="1.0"?>
<VTKFile type="UnstructuredGrid" version="0.1" byte_order="LittleEndian" compressor="vtkZLibDataCompressor">
<UnstructuredGrid>
<Piece NumberOfPoints="10000" NumberOfCells="6400">
<Points>
<DataArray type="Float32" NumberOfComponents="3" format="ascii">
-3.360000e+00 0.000000e+00 0.000000e+00
-3.276000e+00 0.000000e+00 0.000000e+00
-3.192000e+00 0.000000e+00 0.000000e+00
-3.108000e+00 0.000000e+00 0.000000e+00
-3.024000e+00 0.000000e+00 0.000000e+00
-3.360000e+00 6.412500e-02 0.000000e+00
-3.276000e+00 6.412500e-02 0.000000e+00
-3.192000e+00 6.412500e-02 0.000000e+00
-3.108000e+00 6.412500e-02 0.000000e+00
-3.024000e+00 6.412500e-02 0.000000e+00
-3.360000e+00 1.282500e-01 0.000000e+00
-3.276000e+00 1.282500e-01 0.000000e+00
-3.192000e+00 1.282500e-01 0.000000e+00
-3.108000e+00 1.282500e-01 0.000000e+00
-3.024000e+00 1.282500e-01 0.000000e+00
-3.360000e+00 1.923750e-01 0.000000e+00
-3.276000e+00 1.923750e-01 0.000000e+00
-3.192000e+00 1.923750e-01 0.000000e+00
-3.108000e+00 1.923750e-01 0.000000e+00
-3.024000e+00 1.923750e-01 0.000000e+00
-3.360000e+00 2.565000e-01 0.000000e+00
-3.276000e+00 2.565000e-01 0.000000e+00
-3.192000e+00 2.565000e-01 0.000000e+00
-3.108000e+00 2.565000e-01 0.000000e+00
-3.024000e+00 2.565000e-01 0.000000e+00
-3.024000e+00 0.000000e+00 0.000000e+00
-2.940000e+00 0.000000e+00 0.000000e+00
-2.856000e+00 0.000000e+00 0.000000e+00
-2.772000e+00 0.000000e+00 0.000000e+00
-2.688000e+00 0.000000e+00 0.000000e+00
-3.024000e+00 6.412500e-02 0.000000e+00
-2.940000e+00 6.412500e-02 0.000000e+00
-2.856000e+00 6.412500e-02 0.000000e+00
-2.772000e+00 6.412500e-02 0.000000e+00
-2.688000e+00 6.412500e-02 0.000000e+00
-3.024000e+00 1.282500e-01 0.000000e+00
-2.940000e+00 1.282500e-01 0.000000e+00
-2.856000e+00 1.282500e-01 0.000000e+00
-2.772000e+00 1.282500e-01 0.000000e+00
-2.688000e+00 1.282500e-01 0.000000e+00
-3.024000e+00 1.923750e-01 0.000000e+00
-2.940000e+00 1.923750e-01 0.000000e+00
-2.856000e+00 1.923750e-01 0.000000e+00
-2.772000e+00 1.923750e-01 0.000000e+00
-2.688000e+00 1.923750e-01 0.000000e+00
-3.024000e+00 2.565000e-01 0.000000e+00
-2.940000e+00 2.565000e-01 0.000000e+00
-2.856000e+00 2.565000e-01 0.000000e+00
-2.772000e+00 2.565000e-01 0.000000e+00
-2.688000e+00 2.565000e-01 0.000000e+00
-2.688000e+00 0.000000e+00 0.000000e+00
-2.604000e+00 0.000000e+00 0.000000e+00
-2.520000e+00 0.000000e+00 0.000000e+00
-2.436000e+00 0.000000e+00 0.000000e+00
-2.352000e+00 0.000000e+00 0.000000e+00
-2.688000e+00 6.412500e-02 0.000000e+00
-2.604000e+00 6.412500e-02 0.000000e+00
-2.520000e+00 6.412500e-02 0.000000e+00
-2.436000e+00 6.412500e-02 0.000000e+00
-2.352000e+00 6.412500e-02 0.000000e+00
-2.688000e+00 1.282500e-01 0.000000e+00
-2.604000e+00 1.282500e-01 0.000000e+00
-2.520000e+00 1.282500e-01 0.000000e+00
-2.436000e+00 1.282500e-01 0.000000e+00
-2.352000e+00 1.282500e-01 0.000000e+00
-2.688000e+00 1.923750e-01 0.000000e+00
-2.604000e+00 1.923750e-01 0.000000e+00
-2.520000e+00 1.923750e-01 0.000000e+00
-2.436000e+00 1.923750e-01 0.000000e+00
-2.352000e+00 1.923750e-01 0.000000e+00
-2.688000e+00 2.565000e-01 0.000000e+00
-2.604000e+00 2.565000e-01 0.000000e+00
-2.520000e+00 2.565000e-01 0.000000e+00
-2.436000e+00 2.565000e-01 0.000000e+00
-2.352000e+00 2.565000e-01 0.000000e+00
-2.352000e+00 0.000000e+00 0.000000e+00
-2.268000e+00 0.000000e+00 0.000000e+00
-2.184000e+00 0.000000e+00 0.000000e+00
-2.100000e+00 0.000000e+00 0.000000e+00
-2.016000e+00 0.000000e+00 0.000000e+00
-2.352000e+00 6.412500e-02 0.000000e+00
-2.268000e+00 6.412500e-02 0.000000e+00
-2.184000e+00 6.412500e-02 0.000000e+00
-2.100000e+00 6.412500e-02 0.000000e+00
-2.016000e+00 6.412500e-02 0.000000e+00
-2.352000e+00 1.282500e-01 0.000000e+00
-2.268000e+00 1.282500e-01 0.000000e+00
-2.184000e+00 1.282500e-01 0.000000e+00
-2.100000e+00 1.282500e-01 0.000000e+00
-2.016000e+00 1.282500e-01 0.000000e+00
-2.352000e+00 1.923750e-01 0.000000e+00
-2.268000e+00 1.923750e-01 0.000000e+00
-2.184000e+00 1.923750e-01 0.000000e+00
-2.100000e+00 1.923750e-01 0.000000e+00
-2.016000e+00 1.923750e-01 0.000000e+00
-2.352000e+00 2.565000e-01 0.000000e+00
-2.268000e+00 2.565000e-01 0.000000e+00
-2.184000e+00 2.565000e-01 0.000000e+00
-2.100000e+00 2.565000e-01 0.000000e+00
-2.016000e+00 2.565000e-01 0.000000e+00
-2.016000e+00 0.000000e+00 0.000000e+00
-1.932000e+00 0.000000e+00 0.000000e+00
-1.848000e+00 0.000000e+00 0.000000e+00
-1.764000e+00 0.000000e+00 0.000000e+00
-1.680000e+00 0.000000e+00 0.000000e+00
-2.016000e+00 6.412500e-02 0.000000e+00
-1.932000e+00 6.412500e-02 0.000000e+00
-1.848000e+00 6.412500e-02 0.000000e+00
-1.764000e+00 6.412500e-02 0.000000e+00
-1.680000e+00 6.412500e-02 0.000000e+00
-2.016000e+00 1.282500e-01 0.000000e+00
-1.932000e+00 1.282500e-01 0.000000e+00
-1.848000e+00 1.282500e-01 0.000000e+00
-1.764000e+00 1.282500e-01 0.000000e+00
-1.680000e+00 1.282500e-01 0.000000e+00
-2.016000e+00 1.923750e-01 0.000000e+00
-1.932000e+00 1.923750e-01 0.000000e+00
-1.848000e+00 1.923750e-01 0.000000e+00
-1.764000e+00 1.923750e-01 0.000000e+00
-1.680000e+00 1.923750e-01 0.000000e+00
-2.016000e+00 2.565000e-01 0.000000e+00
-1.932000e+00 2.565000e-01 0.000000e+00
-1.848000e+00 2.565000e-01 0.000000e+00
-1.764000e+00 2.565000e-01 0.000000e+00
-1.680000e+00 2.565000e-01 0.000000e+00
-1.680000e+00 0.000000e+00 0.000000e+00
-1.596000e+00 0.000000e+00 0.000000e+00
-1.512000e+00 0.000000e+00 0.000000e+00
-1.428000e+00 0.000000e+00 0.000000e+00
-1.344000e+00 0.000000e+00 0.000000e+00
-1.680000e+00 6.412500e-02 0.000000e+00
-1.596000e+00 6.412500e-02 0.000000e+00
-1.512000e+00 6.412500e-02 0.000000e+00
-1.428000e+00 6.412500e-02 0.000000e+00
-1.344000e+00 6.412500e-02 0.000000e+00
-1.680000e+00 1.282500e-01 0.000000e+00
-1.596000e+00 1.282500e-01 0.000000e+00
-1.512000e+00 1.282500e-01 0.000000e+00
-1.428000e+00 1.282500e-01 0.000000e+00
-1.344000e+00 1.282500e-01 0.000000e+00
-1.680000e+00 1.923750e-01 0.000000e+00
-1.596000e+00 1.923750e-01 0.000000e+00
-1.512000e+00 1.923750e-01 0.000000e+00
-1.428000e+00 1.923750e-01 0.000000e+00
-1.344000e+00 1.923750e-01 0.000000e+00
-1.680000e+00 2.565000e-01 0.000000e+00
-1.596000e+00 2.565000e-01 0.000000e+00
-1.512000e+00 2.565000e-01 0.000000e+00
-1.428000e+00 2.565000e-01 0.000000e+00
-1.344000e+00 2.565000e-01 0.000000e+00
-1.344000e+00 0.000000e+00 0.000000e+00
-1.260000e+00 0.000000e+00 0.000000e+00
-1.176000e+00 0.000000e+00 0.000000e+00
-1.092000e+00 0.000000e+00 0.000000e+00
-1.008000e+00 0.000000e+00 0.000000e+00
-1.344000e+00 6.412500e-02 0.000000e+00
-1.260000e+00 6.412500e-02 0.000000e+00
-1.176000e+00 6.412500e-02 0.000000e+00
-1.092000e+00 6.412500e-02 0.000000e+00
-1.008000e+00 6.412500e-02 0.000000e+00
-1.344000e+00 1.282500e-01 0.000000e+00
-1.260000e+00 1.282500e-01 0.000000e+00
-1.176000e+00 1.282500e-01 0.000000e+00
-1.092000e+00 1.282500e-01 0.000000e+00
-1.008000e+00 1.282500e-01 0.000000e+00
-1.344000e+00 1.923750e-01 0.000000e+00
-1.260000e+00 1.923750e-01 0.000000e+00
-1.176000e+00 1.923750e-01 0.000000e+00
-1.092000e+00 1.923750e-01 0.000000e+00
-1.008000e+00 1.923750e-01 0.000000e+00
-1.344000e+00 2.565000e-01 0.000000e+00
-1.260000e+00 2.565000e-01 0.000000e+00
-1.176000e+00 2.565000e-01 0.000000e+00
-1.092000e+00 2.565000e-01 0.000000e+00
-1.008000e+00 2.565000e-01 0.000000e+00
-1.008000e+00 0.000000e+00 0.000000e+00
-9.240000e-01 0.000000e+00 0.000000e+00
-8.400000e-01 0.000000e+00 0.000000e+00
-7.560000e-01 0.000000e+00 0.000000e+00
-6.720000e-01 0.000000e+00 0.000000e+00
-1.008000e+00 6.412500e-02 0.000000e+00
-9.240000e-01 6.412500e-02 0.000000e+00
-8.400000e-01 6.412500e-02 0.000000e+00
-7.560000e-01 6.412500e-02 0.000000e+00
-6.720000e-01 6.412500e-02 0.000000e+00
-1.008000e+00 1.282500e-01 0.000000e+00
-9.240000e-01 1.282500e-01 0.000000e+00
-8.400000e-01 1.282500e-01 0.000000e+00
-7.560000e-01 1.282500e-01 0.000000e+00
-6.720000e-01 1.282500e-01 0.000000e+00
-1.008000e+00 1.923750e-01 0.000000e+00
-9.240000e-01 1.923750e-01 0.000000e+00
-8.400000e-01 1.923750e-01 0.000000e+00
-7.560000e-01 1.923750e-01 0.000000e+00
-6.720000e-01 1.923750e-01 0.000000e+00
-1.008000e+00 2.565000e-01 0.000000e+00
-9.240000e-01 2.565000e-01 0.000000e+00
-8.400000e-01 2.565000e-01 0.000000e+00
-7.560000e-01 2.565000e-01 0.000000e+00
-6.720000e-01 2.565000e-01 0.000000e+00
-6.720000e-01 0.000000e+00 0.000000e+00
-5.880000e-01 0.000000e+00 0.000000e+00
-5.040000e-01 0.000000e+00 0.000000e+00
-4.200000e-01 0.000000e+00 0.000000e+00
-3.360000e-01 0.000000e+00 0.000000e+00
-6.720000e-01 6.412500e-02 0.000000e+00
-5.880000e-01 6.412500e-02 0.000000e+00
-5.040000e-01 6.412500e-02 0.000000e+00
-4.200000e-01 6.412500e-02 0.000000e+00
-3.360000e-01 6.412500e-02 0.000000e+00
-6.720000e-01 1.282500e-01 0.000000e+00
-5.880000e-01 1.282500e-01 0.000000e+00
-5.040000e-01 1.282500e-01 0.000000e+00
-4.200000e-01 1.282500e-01 0.000000e+00
-3.360000e-01 1.282500e-01 0.000000e+00
-6.720000e-01 1.923750e-01 0.000000e+00
-5.880000e-01 1.923750e-01 0.000000e+00
-5.040000e-01 1.923750e-01 0.000000e+00
-4.200000e-01 1.923750e-01 0.000000e+00
-3.360000e-01 1.923750e-01 0.000000e+00
-6.720000e-01 2.565000e-01 0.000000e+00
-5.880000e-01 2.565000e-01 0.000000e+00
-5.040000e-01 2.565000e-01 0.000000e+00
-4.200000e-01 2.565000e-01 0.000000e+00
-3.360000e-01 2.565000e-01 0.000000e+00
-3.360000e-01 0.000000e+00 0.000000e+00
-2.520000e-01 0.000000e+00 0.000000e+00
-1.680000e-01 0.000000e+00 0.000000e+00
-8.400000e-02 0.000000e+00 0.000000e+00
-4.440890e-16 0.000000e+00 0.000000e+00
-3.360000e-01 6.412500e-02 0.000000e+00
-2.520000e-01 6.412500e-02 0.000000e+00
-1.680000e-01 6.412500e-02 0.000000e+00
-8.400000e-02 6.412500e-02 0.000000e+00
-4.440890e-16 6.412500e-02 0.000000e+00
-3.360000e-01 1.282500e-01 0.000000e+00
-2.520000e-01 1.282500e-01 0.000000e+00
-1.680000e-01 1.282500e-01 0.000000e+00
-8.400000e-02 1.282500e-01 0.000000e+00
-4.440890e-16 1.282500e-01 0.000000e+00
-3.360000e-01 1.923750e-01 0.000000e+00
-2.520000e-01 1.923750e-01 0.000000e+00
-1.680000e-01 1.923750e-01 0.000000e+00
[...]
<PointData>
<DataArray type="Float32" Name="V1" format="ascii">
0.000000e+00
0.000000e+00
0.000000e+00
0.000000e+00
0.000000e+00
6.347820e-02
5.967080e-02
5.539050e-02
5.063730e-02
4.541110e-02
1.013490e-01
9.779070e-02
9.297990e-02
8.691620e-02
7.959960e-02
1.136110e-01
1.143600e-01
1.127680e-01
1.088370e-01
1.025650e-01
1.002660e-01
1.093780e-01
1.147560e-01
1.163990e-01
1.143090e-01
0.000000e+00
0.000000e+00
0.000000e+00
0.000000e+00
0.000000e+00
4.541110e-02
3.970680e-02
3.538800e-02
3.245480e-02
3.090710e-02
7.959960e-02
7.131620e-02
6.488270e-02
6.029930e-02
5.756580e-02
1.025650e-01
9.482810e-02
8.848410e-02
8.353340e-02
7.997590e-02
1.143090e-01
1.102430e-01
1.061920e-01
1.021570e-01
9.813750e-02
0.000000e+00
0.000000e+00
0.000000e+00
0.000000e+00
0.000000e+00
3.090710e-02
2.958020e-02
2.855100e-02
2.781980e-02
2.738640e-02
5.756580e-02
5.531560e-02
5.362060e-02
5.248070e-02
5.189610e-02
7.997590e-02
7.720620e-02
7.520860e-02
7.398280e-02
7.352900e-02
9.813750e-02
9.525220e-02
9.331500e-02
9.232610e-02
9.228540e-02
0.000000e+00
0.000000e+00
0.000000e+00
0.000000e+00
0.000000e+00
2.738640e-02
2.709420e-02
2.710790e-02
2.742760e-02
2.805320e-02
5.189610e-02
5.158060e-02
5.177230e-02
5.247130e-02
5.367740e-02
7.352900e-02
7.345920e-02
7.399310e-02
7.513090e-02
7.687250e-02
9.228540e-02
9.273000e-02
9.377040e-02
9.540660e-02
9.763860e-02
0.000000e+00
0.000000e+00
0.000000e+00
0.000000e+00
0.000000e+00
2.805320e-02
2.883540e-02
2.983240e-02
3.104420e-02
3.247080e-02
5.367740e-02
5.517700e-02
5.706780e-02
5.935000e-02
6.202340e-02
7.687250e-02
7.902460e-02
8.170620e-02
8.491730e-02
8.865790e-02
9.763860e-02
1.003780e-01
1.037480e-01
1.077460e-01
1.123740e-01
0.000000e+00
0.000000e+00
0.000000e+00
0.000000e+00
0.000000e+00
3.247080e-02
3.410690e-02
3.609850e-02
3.844550e-02
4.114800e-02
6.202340e-02
6.506790e-02
6.872260e-02
7.298770e-02
7.786310e-02
8.865790e-02
9.288290e-02
9.787240e-02
1.036270e-01
1.101450e-01
1.123740e-01
1.175520e-01
1.235480e-01
1.303620e-01
1.379940e-01
0.000000e+00
0.000000e+00
0.000000e+00
0.000000e+00
0.000000e+00
4.114800e-02
4.412000e-02
4.767370e-02
5.180890e-02
5.652590e-02
7.786310e-02
8.320600e-02
8.953000e-02
9.683520e-02
1.051220e-01
1.101450e-01
1.172580e-01
1.255690e-01
1.350790e-01
1.457870e-01
1.379940e-01
1.462760e-01
1.557910e-01
1.665400e-01
1.785220e-01
0.000000e+00
0.000000e+00
0.000000e+00
0.000000e+00
0.000000e+00
5.652590e-02
6.149520e-02
6.749100e-02
7.451320e-02
8.256200e-02
1.051220e-01
1.138340e-01
1.242360e-01
1.363280e-01
1.501110e-01
1.457870e-01
1.570160e-01
1.702350e-01
1.854450e-01
2.026460e-01
1.785220e-01
1.910410e-01
2.054880e-01
2.218640e-01
2.401680e-01
0.000000e+00
0.000000e+00
0.000000e+00
0.000000e+00
0.000000e+00
8.256200e-02
9.065770e-02
1.003560e-01
1.116570e-01
1.245600e-01
1.501110e-01
1.639940e-01
1.804580e-01
1.995050e-01
2.211340e-01
2.026460e-01
2.200080e-01
2.403070e-01
2.635450e-01
2.897210e-01
2.401680e-01
2.587000e-01
2.799030e-01
3.037770e-01
3.303220e-01
0.000000e+00
0.000000e+00
0.000000e+00
0.000000e+00
0.000000e+00
1.245600e-01
1.377650e-01
1.524060e-01
1.684840e-01
1.859990e-01
2.211340e-01
2.434060e-01
2.679660e-01
2.948140e-01
3.239480e-01
2.897210e-01
3.169240e-01
3.466800e-01
3.789880e-01
4.138480e-01
3.303220e-01
3.583180e-01
3.885460e-01
4.210060e-01
4.556980e-01
0.000000e+00
0.000000e+00
0.000000e+00
0.000000e+00
0.000000e+00
1.859990e-01
2.062650e-01
2.254730e-01
2.436220e-01
2.607120e-01
3.239480e-01
3.578580e-01
3.902840e-01
4.212250e-01
4.506830e-01
4.138480e-01
4.547790e-01
4.944320e-01
5.328100e-01
5.699100e-01
4.556980e-01
4.970270e-01
5.379190e-01
5.783750e-01
6.183960e-01
0.000000e+00
0.000000e+00
0.000000e+00
0.000000e+00
0.000000e+00
2.607120e-01
2.819790e-01
2.980360e-01
3.088830e-01
3.145200e-01
4.506830e-01
4.873440e-01
5.162930e-01
5.375270e-01
5.510470e-01
5.699100e-01
6.160950e-01
6.547690e-01
6.859300e-01
7.095800e-01
6.183960e-01
6.682320e-01
7.134650e-01
7.540930e-01
7.901180e-01
0.000000e+00
0.000000e+00
0.000000e+00
0.000000e+00
0.000000e+00
3.145200e-01
3.134530e-01
3.062030e-01
2.927730e-01
2.731620e-01
5.510470e-01
5.546060e-01
5.481280e-01
5.316130e-01
5.050620e-01
7.095800e-01
7.234600e-01
7.257730e-01
7.165200e-01
6.957000e-01
7.901180e-01
8.200140e-01
8.391390e-01
8.474930e-01
8.450760e-01
0.000000e+00
0.000000e+00
0.000000e+00
0.000000e+00
0.000000e+00
2.731620e-01
2.369820e-01
2.021960e-01
1.688050e-01
1.368070e-01
5.050620e-01
4.502420e-01
3.946610e-01
3.383200e-01
2.812170e-01
6.957000e-01
6.397800e-01
5.773950e-01
5.085450e-01
4.332300e-01
8.450760e-01
8.055960e-01
7.503980e-01
6.794810e-01
5.928470e-01
0.000000e+00
0.000000e+00
0.000000e+00
0.000000e+00
0.000000e+00
1.368070e-01
1.093740e-01
8.400380e-02
6.069730e-02
3.945420e-02
2.812170e-01
2.281270e-01
1.784630e-01
1.322240e-01
8.941160e-02
4.332300e-01
3.562600e-01
2.833770e-01
2.145810e-01
1.498720e-01
5.928470e-01
4.937720e-01
3.987460e-01
3.077670e-01
2.208360e-01
0.000000e+00
0.000000e+00
0.000000e+00
0.000000e+00
0.000000e+00
3.945420e-02
2.596530e-02
1.372410e-02
2.730500e-03
-7.015380e-03
8.941160e-02
6.214290e-02
3.816490e-02
1.747770e-02
8.120980e-05
1.498720e-01
1.085330e-01
7.332260e-02
4.424160e-02
2.128980e-02
2.208360e-01
1.651350e-01
1.191970e-01
8.302230e-02
5.661030e-02
0.000000e+00
0.000000e+00
0.000000e+00
0.000000e+00
0.000000e+00
-7.015380e-03
-1.345590e-02
-1.605010e-02
-1.479790e-02
-9.699480e-03
8.120980e-05
-1.158080e-02
-1.648720e-02
-1.463790e-02
-6.033020e-03
2.128980e-02
5.625300e-03
-1.311260e-03
4.801010e-04
1.099940e-02
5.661030e-02
3.816240e-02
2.947760e-02
3.055610e-02
4.139770e-02
0.000000e+00
0.000000e+00
0.000000e+00
0.000000e+00
0.000000e+00
-9.699480e-03
-6.969300e-03
-3.938770e-03
-6.078650e-04
3.023400e-03
-6.033020e-03
-1.260770e-03
3.798350e-03
9.144350e-03
1.477720e-02
1.099940e-02
1.712560e-02
2.321140e-02
2.925660e-02
3.526150e-02
4.139770e-02
4.818980e-02
5.430030e-02
5.972900e-02
6.447610e-02
0.000000e+00
0.000000e+00
0.000000e+00
0.000000e+00
0.000000e+00
3.023400e-03
5.706670e-03
7.702980e-03
9.012350e-03
9.634760e-03
1.477720e-02
1.886210e-02
2.180760e-02
2.361370e-02
2.428050e-02
3.526150e-02
3.946620e-02
4.231370e-02
4.380410e-02
4.393710e-02
6.447610e-02
6.751910e-02
6.922150e-02
6.958340e-02
6.860480e-02
0.000000e+00
0.000000e+00
0.000000e+00
0.000000e+00
0.000000e+00
9.634760e-03
1.065710e-02
1.033630e-02
8.672330e-03
5.665230e-03
2.428050e-02
2.538670e-02
2.460380e-02
2.193180e-02
1.737060e-02
4.393710e-02
4.418890e-02
4.280270e-02
3.977840e-02
3.511600e-02
6.860480e-02
6.706360e-02
6.493270e-02
6.221210e-02
5.890160e-02
1.002660e-01
1.093780e-01
1.147560e-01
1.163990e-01
1.143090e-01
9.945850e-02
1.077730e-01
1.137080e-01
1.172630e-01
1.184390e-01
9.848610e-02
1.058230e-01
1.118340e-01
1.165190e-01
1.198770e-01
9.734850e-02
1.035290e-01
1.091350e-01
1.141660e-01
1.186230e-01
9.604590e-02
1.008900e-01
1.056100e-01
1.102050e-01
1.146760e-01
1.143090e-01
1.102430e-01
1.061920e-01
1.021570e-01
9.813750e-02
1.184390e-01
1.172300e-01
1.154330e-01
1.130490e-01
1.100770e-01
1.198770e-01
1.208680e-01
1.208900e-01
1.199440e-01
1.180300e-01
1.186230e-01
1.211560e-01
1.225630e-01
1.228430e-01
1.219960e-01
1.146760e-01
1.180960e-01
1.204520e-01
1.217450e-01
1.219740e-01
9.813750e-02
9.525220e-02
9.331500e-02
9.232610e-02
9.228540e-02
1.100770e-01
1.077060e-01
1.061900e-01
1.055290e-01
1.057230e-01
1.180300e-01
1.162930e-01
1.152750e-01
1.149770e-01
1.153990e-01
1.219960e-01
1.210110e-01
1.205690e-01
1.206690e-01
1.213120e-01
1.219740e-01
1.218620e-01
1.220720e-01
1.226060e-01
1.234620e-01
9.228540e-02
9.273000e-02
9.377040e-02
9.540660e-02
9.763860e-02
1.057230e-01
1.064850e-01
1.078470e-01
1.098080e-01
1.123700e-01
1.153990e-01
1.164200e-01
1.180250e-01
1.202150e-01
1.229890e-01
1.213120e-01
1.225340e-01
1.243050e-01
1.266250e-01
1.294940e-01
1.234620e-01
1.248280e-01
1.266870e-01
1.290400e-01
1.318860e-01
9.763860e-02
1.003780e-01
1.037480e-01
1.077460e-01
1.123740e-01
1.123700e-01
1.154330e-01
1.191470e-01
1.235110e-01
1.285260e-01
1.229890e-01
1.262470e-01
1.301530e-01
1.347070e-01
1.399080e-01
1.294940e-01
1.328190e-01
1.367660e-01
1.413330e-01
1.465220e-01
1.318860e-01
1.351500e-01
1.389850e-01
1.433910e-01
1.483670e-01
1.123740e-01
1.175520e-01
1.235480e-01
1.303620e-01
1.379940e-01
1.285260e-01
1.340930e-01
1.404730e-01
1.476660e-01
1.556720e-01
1.399080e-01
1.456470e-01
1.521750e-01
1.594930e-01
1.676000e-01
1.465220e-01
1.522130e-01
1.586530e-01
1.658420e-01
1.737790e-01
1.483670e-01
1.537930e-01
1.599080e-01
1.667130e-01
1.742070e-01
1.379940e-01
1.462760e-01
1.557910e-01
1.665400e-01
1.785220e-01
1.556720e-01
1.642620e-01
1.740520e-01
1.850410e-01
1.972290e-01
1.676000e-01
1.762250e-01
1.860000e-01
1.969240e-01
2.089980e-01
1.737790e-01
1.821650e-01
1.916350e-01
2.021900e-01
2.138290e-01
1.742070e-01
1.820810e-01
1.909580e-01
2.008380e-01
2.117220e-01
1.785220e-01
1.910410e-01
2.054880e-01
2.218640e-01
2.401680e-01
1.972290e-01
2.097910e-01
2.242370e-01
2.405690e-01
2.587860e-01
2.089980e-01
2.213030e-01
2.354440e-01
2.514200e-01
2.692300e-01
2.138290e-01
2.255790e-01
2.391080e-01
2.544150e-01
2.715000e-01
2.117220e-01
2.226180e-01
2.352290e-01
2.495540e-01
2.655950e-01
2.401680e-01
2.587000e-01
2.799030e-01
3.037770e-01
3.303220e-01
2.587860e-01
2.769080e-01
2.977620e-01
3.213480e-01
3.476660e-01
2.692300e-01
2.866360e-01
3.068520e-01
3.298780e-01
3.557150e-01
2.715000e-01
2.878820e-01
3.071710e-01
3.293680e-01
3.544710e-01
2.655950e-01
2.806470e-01
2.987210e-01
3.198160e-01
3.439320e-01
3.303220e-01
3.583180e-01
3.885460e-01
4.210060e-01
4.556980e-01
3.476660e-01
3.749640e-01
4.048600e-01
4.373530e-01
4.724450e-01
3.557150e-01
3.820060e-01
4.112650e-01
4.434940e-01
4.786920e-01
3.544710e-01
3.794440e-01
4.077630e-01
4.394280e-01
4.744380e-01
3.439320e-01
3.672790e-01
3.943530e-01
4.251550e-01
4.596830e-01
4.556980e-01
4.970270e-01
5.379190e-01
5.783750e-01
6.183960e-01
4.724450e-01
5.144470e-01
5.564720e-01
5.985220e-01
6.405960e-01
4.786920e-01
5.209470e-01
5.636490e-01
6.068000e-01
6.503990e-01
4.744380e-01
5.165270e-01
5.594510e-01
6.032110e-01
6.478050e-01
4.596830e-01
5.011870e-01
5.438760e-01
5.877520e-01
6.328150e-01
6.183960e-01
6.682320e-01
7.134650e-01
7.540930e-01
7.901180e-01
6.405960e-01
6.951370e-01
7.452340e-01
7.908880e-01
8.320990e-01
6.503990e-01
7.092320e-01
7.637130e-01
8.138430e-01
8.596220e-01
6.478050e-01
7.105170e-01
7.689010e-01
8.229590e-01
8.726890e-01
6.328150e-01
6.989920e-01
7.607990e-01
8.182350e-01
8.712990e-01
7.901180e-01
8.200140e-01
8.391390e-01
8.474930e-01
8.450760e-01
8.320990e-01
8.709980e-01
9.000520e-01
9.192590e-01
9.286210e-01
8.596220e-01
9.062650e-01
9.436570e-01
9.717990e-01
9.906890e-01
8.726890e-01
9.258150e-01
9.699560e-01
1.005110e+00
1.031280e+00
8.712990e-01
9.296480e-01
9.789480e-01
1.019200e+00
1.050400e+00
8.450760e-01
8.055960e-01
7.503980e-01
6.794810e-01
5.928470e-01
9.286210e-01
9.053310e-01
8.658540e-01
8.101910e-01
7.383410e-01
9.906890e-01
9.791140e-01
9.523350e-01
9.103530e-01
8.531660e-01
1.031280e+00
1.026950e+00
1.009840e+00
9.799670e-01
9.373210e-01
1.050400e+00
1.048830e+00
1.038370e+00
1.019030e+00
9.908060e-01
5.928470e-01
4.937720e-01
3.987460e-01
3.077670e-01
2.208360e-01
7.383410e-01
6.336200e-01
5.272590e-01
4.192580e-01
3.096180e-01
8.531660e-01
7.516860e-01
6.425770e-01
5.258390e-01
4.014740e-01
9.373210e-01
8.479700e-01
7.446990e-01
6.275100e-01
4.964010e-01
9.908060e-01
9.224720e-01
8.336260e-01
7.242700e-01
5.944020e-01
2.208360e-01
1.651350e-01
1.191970e-01
8.302230e-02
5.661030e-02
3.096180e-01
2.398200e-01
1.818530e-01
1.357170e-01
1.014110e-01
4.014740e-01
3.191650e-01
2.498460e-01
1.935170e-01
1.501770e-01
4.964010e-01
4.031680e-01
3.231750e-01
2.564220e-01
2.029100e-01
5.944020e-01
4.918300e-01
4.018410e-01
3.244340e-01
2.596090e-01
5.661030e-02
3.816240e-02
2.947760e-02
3.055610e-02
4.139770e-02
1.014110e-01
7.548730e-02
6.156930e-02
5.965690e-02
6.975000e-02
1.501770e-01
1.161250e-01
9.604490e-02
8.993750e-02
9.780260e-02
2.029100e-01
1.600750e-01
1.329040e-01
1.213980e-01
1.255550e-01
2.596090e-01
2.073380e-01
1.721480e-01
1.540380e-01
1.530080e-01
4.139770e-02
4.818980e-02
5.430030e-02
5.972900e-02
6.447610e-02
6.975000e-02
7.657560e-02
8.225860e-02
8.679920e-02
9.019740e-02
9.780260e-02
1.036470e-01
1.081520e-01
1.113180e-01
1.131450e-01
1.255550e-01
1.294030e-01
1.319800e-01
1.332840e-01
1.333170e-01
1.530080e-01
1.538460e-01
1.537430e-01
1.526990e-01
1.507160e-01
6.447610e-02
6.751910e-02
6.922150e-02
6.958340e-02
6.860480e-02
9.019740e-02
9.182090e-02
9.216200e-02
9.122080e-02
8.899720e-02
1.131450e-01
1.131960e-01
1.120880e-01
1.098210e-01
1.063960e-01
1.333170e-01
1.316440e-01
1.290000e-01
1.253850e-01
1.208000e-01
1.507160e-01
1.471650e-01
1.428970e-01
1.379120e-01
1.322100e-01
6.860480e-02
6.706360e-02
6.493270e-02
6.221210e-02
5.890160e-02
8.899720e-02
8.665730e-02
8.382590e-02
8.050320e-02
7.668900e-02
1.063960e-01
1.032740e-01
9.977300e-02
9.589230e-02
9.163200e-02
1.208000e-01
1.169140e-01
1.127740e-01
1.083790e-01
1.037300e-01
1.322100e-01
1.275770e-01
1.228290e-01
1.179640e-01
1.129840e-01
9.604590e-02
1.008900e-01
1.056100e-01
1.102050e-01
1.146760e-01
9.458900e-02
9.891100e-02
1.031620e-01
1.073410e-01
1.114500e-01
9.299440e-02
9.693350e-02
1.007880e-01
1.045590e-01
1.082460e-01
9.126190e-02
9.495780e-02
9.849030e-02
1.018590e-01
1.050640e-01
8.939170e-02
9.298410e-02
9.626720e-02
9.924090e-02
1.019050e-01
1.146760e-01
1.180960e-01
1.204520e-01
1.217450e-01
1.219740e-01
1.114500e-01
1.148630e-01
1.174440e-01
1.191910e-01
1.201050e-01
1.082460e-01
1.115020e-01
1.141420e-01
1.161660e-01
1.175740e-01
1.050640e-01
1.080120e-01
1.105470e-01
1.126690e-01
1.143790e-01
1.019050e-01
1.043940e-01
1.066590e-01
1.087010e-01
1.105200e-01
1.219740e-01
1.218620e-01
1.220720e-01
1.226060e-01
1.234620e-01
1.201050e-01
1.206280e-01
1.213490e-01
1.222690e-01
1.233870e-01
1.175740e-01
1.185950e-01
1.197260e-01
1.209650e-01
1.223120e-01
1.143790e-01
1.157650e-01
1.172030e-01
1.186940e-01
1.202390e-01
1.105200e-01
1.121360e-01
1.137810e-01
1.154580e-01
1.171650e-01
1.234620e-01
1.248280e-01
1.266870e-01
1.290400e-01
1.318860e-01
1.233870e-01
1.249080e-01
1.268620e-01
1.292510e-01
1.320740e-01
1.223120e-01
1.239710e-01
1.260080e-01
1.284230e-01
1.312170e-01
1.202390e-01
1.220190e-01
1.241250e-01
1.265570e-01
1.293130e-01
1.171650e-01
1.190520e-01
1.212130e-01
1.236510e-01
1.263630e-01
1.318860e-01
1.351500e-01
1.389850e-01
1.433910e-01
1.483670e-01
1.320740e-01
1.352780e-01
1.390100e-01
1.432720e-01
1.480620e-01
1.312170e-01
1.343520e-01
1.379750e-01
1.420860e-01
1.466840e-01
1.293130e-01
1.323730e-01
1.358800e-01
1.398330e-01
1.442320e-01
1.263630e-01
1.293410e-01
1.327240e-01
1.365120e-01
1.407060e-01
1.483670e-01
1.537930e-01
1.599080e-01
1.667130e-01
1.742070e-01
1.480620e-01
1.532520e-01
1.590950e-01
1.655900e-01
1.727370e-01
1.466840e-01
1.516320e-01
1.571950e-01
1.633720e-01
1.701650e-01
1.442320e-01
1.489310e-01
1.542080e-01
1.600610e-01
1.664920e-01
1.407060e-01
1.451510e-01
1.501340e-01
1.556560e-01
1.617160e-01
1.742070e-01
1.820810e-01
1.909580e-01
2.008380e-01
2.117220e-01
1.727370e-01
1.802060e-01
1.886360e-01
1.980250e-01
2.083740e-01
1.701650e-01
1.772200e-01
1.851880e-01
1.940690e-01
2.038640e-01
1.664920e-01
1.731230e-01
1.806170e-01
1.889720e-01
1.981890e-01
1.617160e-01
1.679150e-01
1.749200e-01
1.827320e-01
1.913500e-01
2.117220e-01
2.226180e-01
2.352290e-01
2.495540e-01
2.655950e-01
2.083740e-01
2.186610e-01
2.306310e-01
2.442850e-01
2.596220e-01
2.038640e-01
2.135170e-01
2.248010e-01
2.377160e-01
2.522620e-01
1.981890e-01
2.071840e-01
2.177370e-01
2.298470e-01
2.435150e-01
1.913500e-01
1.996640e-01
2.094400e-01
2.206790e-01
2.333820e-01
2.655950e-01
2.806470e-01
2.987210e-01
3.198160e-01
3.439320e-01
2.596220e-01
2.736650e-01
2.908830e-01
3.112750e-01
3.348420e-01
2.522620e-01
2.652300e-01
2.814590e-01
3.009500e-01
3.237020e-01
2.435150e-01
2.553420e-01
2.704510e-01
2.888410e-01
3.105120e-01
2.333820e-01
2.440020e-01
2.578580e-01
2.749490e-01
2.952740e-01
3.439320e-01
3.672790e-01
3.943530e-01
4.251550e-01
4.596830e-01
3.348420e-01
3.566850e-01
3.826900e-01
4.128550e-01
4.471810e-01
3.237020e-01
3.435950e-01
3.681210e-01
3.972800e-01
4.310710e-01
3.105120e-01
3.280090e-01
3.506470e-01
3.784290e-01
4.113530e-01
2.952740e-01
3.099260e-01
3.302690e-01
3.563020e-01
3.880260e-01
4.596830e-01
5.011870e-01
5.438760e-01
5.877520e-01
6.328150e-01
4.471810e-01
4.879710e-01
5.301950e-01
5.738530e-01
6.189460e-01
4.310710e-01
4.702520e-01
5.109760e-01
5.532430e-01
5.970530e-01
4.113530e-01
4.480310e-01
4.862210e-01
5.259220e-01
5.671350e-01
3.880260e-01
4.213070e-01
4.559290e-01
4.918900e-01
5.291920e-01
6.328150e-01
6.989920e-01
7.607990e-01
8.182350e-01
8.712990e-01
6.189460e-01
6.890550e-01
7.540570e-01
8.139550e-01
8.687470e-01
5.970530e-01
6.698010e-01
7.363400e-01
7.966700e-01
8.507910e-01
5.671350e-01
6.412320e-01
7.076470e-01
7.663800e-01
8.174320e-01
5.291920e-01
6.033470e-01
6.679780e-01
7.230860e-01
7.686700e-01
8.712990e-01
9.296480e-01
9.789480e-01
1.019200e+00
1.050400e+00
8.687470e-01
9.333250e-01
9.880660e-01
1.032970e+00
1.068030e+00
8.507910e-01
9.197610e-01
9.786050e-01
1.027320e+00
1.065920e+00
8.174320e-01
8.889540e-01
9.505660e-01
1.002270e+00
1.044060e+00
7.686700e-01
8.409050e-01
9.039490e-01
9.578010e-01
1.002460e+00
1.050400e+00
1.048830e+00
1.038370e+00
1.019030e+00
9.908060e-01
1.068030e+00
1.067590e+00
1.059260e+00
1.043050e+00
1.018950e+00
1.065920e+00
1.066770e+00
1.061020e+00
1.048670e+00
1.029720e+00
1.044060e+00
1.046370e+00
1.043650e+00
1.035900e+00
1.023110e+00
1.002460e+00
1.006390e+00
1.007150e+00
1.004730e+00
9.991410e-01
9.908060e-01
9.224720e-01
8.336260e-01
7.242700e-01
5.944020e-01
1.018950e+00
9.615900e-01
8.847050e-01
7.882920e-01
6.723490e-01
1.029720e+00
9.806950e-01
9.144710e-01
8.310440e-01
7.304130e-01
1.023110e+00
9.797860e-01
9.229240e-01
8.525270e-01
7.685940e-01
9.991410e-01
9.588640e-01
9.100630e-01
8.527400e-01
7.868930e-01
5.944020e-01
4.918300e-01
4.018410e-01
3.244340e-01
2.596090e-01
6.723490e-01
5.670310e-01
4.721340e-01
3.876580e-01
3.136030e-01
7.304130e-01
6.273130e-01
5.315410e-01
4.430960e-01
3.619780e-01
7.685940e-01
6.726770e-01
5.800610e-01
4.907460e-01
4.047340e-01
7.868930e-01
7.031210e-01
6.176930e-01
5.306100e-01
4.418720e-01
2.596090e-01
2.073380e-01
1.721480e-01
1.540380e-01
1.530080e-01
3.136030e-01
2.565090e-01
2.155190e-01
1.906330e-01
1.818510e-01
3.619780e-01
3.018130e-01
2.563860e-01
2.256990e-01
2.097490e-01
4.047340e-01
3.432490e-01
2.947500e-01
2.592350e-01
2.367050e-01
4.418720e-01
3.808190e-01
3.306090e-01
2.912420e-01
2.627180e-01
1.530080e-01
1.538460e-01
1.537430e-01
1.526990e-01
1.507160e-01
1.818510e-01
1.776950e-01
1.735570e-01
1.694340e-01
1.653280e-01
2.097490e-01
2.002430e-01
1.917530e-01
1.842810e-01
1.778270e-01
2.367050e-01
2.214870e-01
2.083320e-01
1.972400e-01
1.882120e-01
2.627180e-01
2.414280e-01
2.232920e-01
2.083110e-01
1.964850e-01
1.507160e-01
1.471650e-01
1.428970e-01
1.379120e-01
1.322100e-01
1.653280e-01
1.600330e-01
1.542110e-01
1.478630e-01
1.409870e-01
1.778270e-01
1.708530e-01
1.635620e-01
1.559540e-01
1.480300e-01
1.882120e-01
1.796230e-01
1.709480e-01
1.621870e-01
1.533410e-01
1.964850e-01
1.863450e-01
1.763710e-01
1.665620e-01
1.569180e-01
1.322100e-01
1.275770e-01
1.228290e-01
1.179640e-01
1.129840e-01
1.409870e-01
1.355150e-01
1.301740e-01
1.249620e-01
1.198800e-01
1.480300e-01
1.417970e-01
1.359320e-01
1.304330e-01
1.253030e-01
1.533410e-01
1.464230e-01
1.401020e-01
1.343790e-01
1.292530e-01
1.569180e-01
1.493920e-01
1.426850e-01
1.367980e-01
1.317320e-01
8.939170e-02
9.298410e-02
9.626720e-02
9.924090e-02
1.019050e-01
8.740010e-02
9.073490e-02
9.375090e-02
9.644830e-02
9.882690e-02
8.530680e-02
8.838190e-02
9.114180e-02
9.358650e-02
9.571610e-02
8.311190e-02
8.592510e-02
8.843980e-02
9.065570e-02
9.257300e-02
8.081530e-02
8.336470e-02
8.564480e-02
8.765570e-02
8.939750e-02
1.019050e-01
1.043940e-01
1.066590e-01
1.087010e-01
1.105200e-01
9.882690e-02
1.009930e-01