<?xml version="1.0"?>
<VTKFile type="UnstructuredGrid" version="0.1" byte_order="LittleEndian" compressor="vtkZLibDataCompressor">
<UnstructuredGrid>
<Piece NumberOfPoints="10000" NumberOfCells="6400">
<Points>
<DataArray type="Float32" NumberOfComponents="3" format="ascii">
-3.360000e+00 0.000000e+00 0.000000e+00
-3.276000e+00 0.000000e+00 0.000000e+00
-3.192000e+00 0.000000e+00 0.000000e+00
-3.108000e+00 0.000000e+00 0.000000e+00
-3.024000e+00 0.000000e+00 0.000000e+00
-3.360000e+00 6.412500e-02 0.000000e+00
-3.276000e+00 6.412500e-02 0.000000e+00
-3.192000e+00 6.412500e-02 0.000000e+00
-3.108000e+00 6.412500e-02 0.000000e+00
-3.024000e+00 6.412500e-02 0.000000e+00
-3.360000e+00 1.282500e-01 0.000000e+00
-3.276000e+00 1.282500e-01 0.000000e+00
-3.192000e+00 1.282500e-01 0.000000e+00
-3.108000e+00 1.282500e-01 0.000000e+00
-3.024000e+00 1.282500e-01 0.000000e+00
-3.360000e+00 1.923750e-01 0.000000e+00
-3.276000e+00 1.923750e-01 0.000000e+00
-3.192000e+00 1.923750e-01 0.000000e+00
-3.108000e+00 1.923750e-01 0.000000e+00
-3.024000e+00 1.923750e-01 0.000000e+00
-3.360000e+00 2.565000e-01 0.000000e+00
-3.276000e+00 2.565000e-01 0.000000e+00
-3.192000e+00 2.565000e-01 0.000000e+00
-3.108000e+00 2.565000e-01 0.000000e+00
-3.024000e+00 2.565000e-01 0.000000e+00
-3.024000e+00 0.000000e+00 0.000000e+00
-2.940000e+00 0.000000e+00 0.000000e+00
-2.856000e+00 0.000000e+00 0.000000e+00
-2.772000e+00 0.000000e+00 0.000000e+00
-2.688000e+00 0.000000e+00 0.000000e+00
-3.024000e+00 6.412500e-02 0.000000e+00
-2.940000e+00 6.412500e-02 0.000000e+00
-2.856000e+00 6.412500e-02 0.000000e+00
-2.772000e+00 6.412500e-02 0.000000e+00
-2.688000e+00 6.412500e-02 0.000000e+00
-3.024000e+00 1.282500e-01 0.000000e+00
-2.940000e+00 1.282500e-01 0.000000e+00
-2.856000e+00 1.282500e-01 0.000000e+00
-2.772000e+00 1.282500e-01 0.000000e+00
-2.688000e+00 1.282500e-01 0.000000e+00
-3.024000e+00 1.923750e-01 0.000000e+00
-2.940000e+00 1.923750e-01 0.000000e+00
-2.856000e+00 1.923750e-01 0.000000e+00
-2.772000e+00 1.923750e-01 0.000000e+00
-2.688000e+00 1.923750e-01 0.000000e+00
-3.024000e+00 2.565000e-01 0.000000e+00
-2.940000e+00 2.565000e-01 0.000000e+00
-2.856000e+00 2.565000e-01 0.000000e+00
-2.772000e+00 2.565000e-01 0.000000e+00
-2.688000e+00 2.565000e-01 0.000000e+00
-2.688000e+00 0.000000e+00 0.000000e+00
-2.604000e+00 0.000000e+00 0.000000e+00
-2.520000e+00 0.000000e+00 0.000000e+00
-2.436000e+00 0.000000e+00 0.000000e+00
-2.352000e+00 0.000000e+00 0.000000e+00
-2.688000e+00 6.412500e-02 0.000000e+00
-2.604000e+00 6.412500e-02 0.000000e+00
-2.520000e+00 6.412500e-02 0.000000e+00
-2.436000e+00 6.412500e-02 0.000000e+00
-2.352000e+00 6.412500e-02 0.000000e+00
-2.688000e+00 1.282500e-01 0.000000e+00
-2.604000e+00 1.282500e-01 0.000000e+00
-2.520000e+00 1.282500e-01 0.000000e+00
-2.436000e+00 1.282500e-01 0.000000e+00
-2.352000e+00 1.282500e-01 0.000000e+00
-2.688000e+00 1.923750e-01 0.000000e+00
-2.604000e+00 1.923750e-01 0.000000e+00
-2.520000e+00 1.923750e-01 0.000000e+00
-2.436000e+00 1.923750e-01 0.000000e+00
-2.352000e+00 1.923750e-01 0.000000e+00
-2.688000e+00 2.565000e-01 0.000000e+00
-2.604000e+00 2.565000e-01 0.000000e+00
-2.520000e+00 2.565000e-01 0.000000e+00
-2.436000e+00 2.565000e-01 0.000000e+00
-2.352000e+00 2.565000e-01 0.000000e+00
-2.352000e+00 0.000000e+00 0.000000e+00
-2.268000e+00 0.000000e+00 0.000000e+00
-2.184000e+00 0.000000e+00 0.000000e+00
-2.100000e+00 0.000000e+00 0.000000e+00
-2.016000e+00 0.000000e+00 0.000000e+00
-2.352000e+00 6.412500e-02 0.000000e+00
-2.268000e+00 6.412500e-02 0.000000e+00
-2.184000e+00 6.412500e-02 0.000000e+00
-2.100000e+00 6.412500e-02 0.000000e+00
-2.016000e+00 6.412500e-02 0.000000e+00
-2.352000e+00 1.282500e-01 0.000000e+00
-2.268000e+00 1.282500e-01 0.000000e+00
-2.184000e+00 1.282500e-01 0.000000e+00
-2.100000e+00 1.282500e-01 0.000000e+00
-2.016000e+00 1.282500e-01 0.000000e+00
-2.352000e+00 1.923750e-01 0.000000e+00
-2.268000e+00 1.923750e-01 0.000000e+00
-2.184000e+00 1.923750e-01 0.000000e+00
-2.100000e+00 1.923750e-01 0.000000e+00
-2.016000e+00 1.923750e-01 0.000000e+00
-2.352000e+00 2.565000e-01 0.000000e+00
-2.268000e+00 2.565000e-01 0.000000e+00
-2.184000e+00 2.565000e-01 0.000000e+00
-2.100000e+00 2.565000e-01 0.000000e+00
-2.016000e+00 2.565000e-01 0.000000e+00
-2.016000e+00 0.000000e+00 0.000000e+00
-1.932000e+00 0.000000e+00 0.000000e+00
-1.848000e+00 0.000000e+00 0.000000e+00
-1.764000e+00 0.000000e+00 0.000000e+00
-1.680000e+00 0.000000e+00 0.000000e+00
-2.016000e+00 6.412500e-02 0.000000e+00
-1.932000e+00 6.412500e-02 0.000000e+00
-1.848000e+00 6.412500e-02 0.000000e+00
-1.764000e+00 6.412500e-02 0.000000e+00
-1.680000e+00 6.412500e-02 0.000000e+00
-2.016000e+00 1.282500e-01 0.000000e+00
-1.932000e+00 1.282500e-01 0.000000e+00
-1.848000e+00 1.282500e-01 0.000000e+00
-1.764000e+00 1.282500e-01 0.000000e+00
-1.680000e+00 1.282500e-01 0.000000e+00
-2.016000e+00 1.923750e-01 0.000000e+00
-1.932000e+00 1.923750e-01 0.000000e+00
-1.848000e+00 1.923750e-01 0.000000e+00
-1.764000e+00 1.923750e-01 0.000000e+00
-1.680000e+00 1.923750e-01 0.000000e+00
-2.016000e+00 2.565000e-01 0.000000e+00
-1.932000e+00 2.565000e-01 0.000000e+00
-1.848000e+00 2.565000e-01 0.000000e+00
-1.764000e+00 2.565000e-01 0.000000e+00
-1.680000e+00 2.565000e-01 0.000000e+00
-1.680000e+00 0.000000e+00 0.000000e+00
-1.596000e+00 0.000000e+00 0.000000e+00
-1.512000e+00 0.000000e+00 0.000000e+00
-1.428000e+00 0.000000e+00 0.000000e+00
-1.344000e+00 0.000000e+00 0.000000e+00
-1.680000e+00 6.412500e-02 0.000000e+00
-1.596000e+00 6.412500e-02 0.000000e+00
-1.512000e+00 6.412500e-02 0.000000e+00
-1.428000e+00 6.412500e-02 0.000000e+00
-1.344000e+00 6.412500e-02 0.000000e+00
-1.680000e+00 1.282500e-01 0.000000e+00
-1.596000e+00 1.282500e-01 0.000000e+00
-1.512000e+00 1.282500e-01 0.000000e+00
-1.428000e+00 1.282500e-01 0.000000e+00
-1.344000e+00 1.282500e-01 0.000000e+00
-1.680000e+00 1.923750e-01 0.000000e+00
-1.596000e+00 1.923750e-01 0.000000e+00
-1.512000e+00 1.923750e-01 0.000000e+00
-1.428000e+00 1.923750e-01 0.000000e+00
-1.344000e+00 1.923750e-01 0.000000e+00
-1.680000e+00 2.565000e-01 0.000000e+00
-1.596000e+00 2.565000e-01 0.000000e+00
-1.512000e+00 2.565000e-01 0.000000e+00
-1.428000e+00 2.565000e-01 0.000000e+00
-1.344000e+00 2.565000e-01 0.000000e+00
-1.344000e+00 0.000000e+00 0.000000e+00
-1.260000e+00 0.000000e+00 0.000000e+00
-1.176000e+00 0.000000e+00 0.000000e+00
-1.092000e+00 0.000000e+00 0.000000e+00
-1.008000e+00 0.000000e+00 0.000000e+00
-1.344000e+00 6.412500e-02 0.000000e+00
-1.260000e+00 6.412500e-02 0.000000e+00
-1.176000e+00 6.412500e-02 0.000000e+00
-1.092000e+00 6.412500e-02 0.000000e+00
-1.008000e+00 6.412500e-02 0.000000e+00
-1.344000e+00 1.282500e-01 0.000000e+00
-1.260000e+00 1.282500e-01 0.000000e+00
-1.176000e+00 1.282500e-01 0.000000e+00
-1.092000e+00 1.282500e-01 0.000000e+00
-1.008000e+00 1.282500e-01 0.000000e+00
-1.344000e+00 1.923750e-01 0.000000e+00
-1.260000e+00 1.923750e-01 0.000000e+00
-1.176000e+00 1.923750e-01 0.000000e+00
-1.092000e+00 1.923750e-01 0.000000e+00
-1.008000e+00 1.923750e-01 0.000000e+00
-1.344000e+00 2.565000e-01 0.000000e+00
-1.260000e+00 2.565000e-01 0.000000e+00
-1.176000e+00 2.565000e-01 0.000000e+00
-1.092000e+00 2.565000e-01 0.000000e+00
-1.008000e+00 2.565000e-01 0.000000e+00
-1.008000e+00 0.000000e+00 0.000000e+00
-9.240000e-01 0.000000e+00 0.000000e+00
-8.400000e-01 0.000000e+00 0.000000e+00
-7.560000e-01 0.000000e+00 0.000000e+00
-6.720000e-01 0.000000e+00 0.000000e+00
-1.008000e+00 6.412500e-02 0.000000e+00
-9.240000e-01 6.412500e-02 0.000000e+00
-8.400000e-01 6.412500e-02 0.000000e+00
-7.560000e-01 6.412500e-02 0.000000e+00
-6.720000e-01 6.412500e-02 0.000000e+00
-1.008000e+00 1.282500e-01 0.000000e+00
-9.240000e-01 1.282500e-01 0.000000e+00
-8.400000e-01 1.282500e-01 0.000000e+00
-7.560000e-01 1.282500e-01 0.000000e+00
-6.720000e-01 1.282500e-01 0.000000e+00
-1.008000e+00 1.923750e-01 0.000000e+00
-9.240000e-01 1.923750e-01 0.000000e+00
-8.400000e-01 1.923750e-01 0.000000e+00
-7.560000e-01 1.923750e-01 0.000000e+00
-6.720000e-01 1.923750e-01 0.000000e+00
-1.008000e+00 2.565000e-01 0.000000e+00
-9.240000e-01 2.565000e-01 0.000000e+00
-8.400000e-01 2.565000e-01 0.000000e+00
-7.560000e-01 2.565000e-01 0.000000e+00
-6.720000e-01 2.565000e-01 0.000000e+00
-6.720000e-01 0.000000e+00 0.000000e+00
-5.880000e-01 0.000000e+00 0.000000e+00
-5.040000e-01 0.000000e+00 0.000000e+00
-4.200000e-01 0.000000e+00 0.000000e+00
-3.360000e-01 0.000000e+00 0.000000e+00
-6.720000e-01 6.412500e-02 0.000000e+00
-5.880000e-01 6.412500e-02 0.000000e+00
-5.040000e-01 6.412500e-02 0.000000e+00
-4.200000e-01 6.412500e-02 0.000000e+00
-3.360000e-01 6.412500e-02 0.000000e+00
-6.720000e-01 1.282500e-01 0.000000e+00
-5.880000e-01 1.282500e-01 0.000000e+00
-5.040000e-01 1.282500e-01 0.000000e+00
-4.200000e-01 1.282500e-01 0.000000e+00
-3.360000e-01 1.282500e-01 0.000000e+00
-6.720000e-01 1.923750e-01 0.000000e+00
-5.880000e-01 1.923750e-01 0.000000e+00
-5.040000e-01 1.923750e-01 0.000000e+00
-4.200000e-01 1.923750e-01 0.000000e+00
-3.360000e-01 1.923750e-01 0.000000e+00
-6.720000e-01 2.565000e-01 0.000000e+00
-5.880000e-01 2.565000e-01 0.000000e+00
-5.040000e-01 2.565000e-01 0.000000e+00
-4.200000e-01 2.565000e-01 0.000000e+00
-3.360000e-01 2.565000e-01 0.000000e+00
-3.360000e-01 0.000000e+00 0.000000e+00
-2.520000e-01 0.000000e+00 0.000000e+00
-1.680000e-01 0.000000e+00 0.000000e+00
-8.400000e-02 0.000000e+00 0.000000e+00
-4.440890e-16 0.000000e+00 0.000000e+00
-3.360000e-01 6.412500e-02 0.000000e+00
-2.520000e-01 6.412500e-02 0.000000e+00
-1.680000e-01 6.412500e-02 0.000000e+00
-8.400000e-02 6.412500e-02 0.000000e+00
-4.440890e-16 6.412500e-02 0.000000e+00
-3.360000e-01 1.282500e-01 0.000000e+00
-2.520000e-01 1.282500e-01 0.000000e+00
-1.680000e-01 1.282500e-01 0.000000e+00
-8.400000e-02 1.282500e-01 0.000000e+00
-4.440890e-16 1.282500e-01 0.000000e+00
-3.360000e-01 1.923750e-01 0.000000e+00
-2.520000e-01 1.923750e-01 0.000000e+00
-1.680000e-01 1.923750e-01 0.000000e+00
[...]
<PointData>
<DataArray type="Float32" Name="V1" format="ascii">
0.000000e+00
0.000000e+00
0.000000e+00
0.000000e+00
0.000000e+00
6.347820e-02
5.959820e-02
5.536330e-02
5.077340e-02
4.582870e-02
1.013490e-01
9.767510e-02
9.293970e-02
8.714240e-02
8.028320e-02
1.136110e-01
1.142310e-01
1.127290e-01
1.091070e-01
1.033630e-01
1.002660e-01
1.092650e-01
1.147320e-01
1.166670e-01
1.150690e-01
0.000000e+00
0.000000e+00
0.000000e+00
0.000000e+00
0.000000e+00
4.582870e-02
4.067640e-02
3.706320e-02
3.498890e-02
3.445360e-02
8.028320e-02
7.293250e-02
6.770670e-02
6.460570e-02
6.362970e-02
1.033630e-01
9.676810e-02
9.193050e-02
8.885050e-02
8.752820e-02
1.150690e-01
1.121830e-01
1.097350e-01
1.077230e-01
1.061490e-01
0.000000e+00
0.000000e+00
0.000000e+00
0.000000e+00
0.000000e+00
3.445360e-02
3.410900e-02
3.401850e-02
3.418200e-02
3.459960e-02
6.362970e-02
6.310760e-02
6.307780e-02
6.354010e-02
6.449460e-02
8.752820e-02
8.699580e-02
8.717790e-02
8.807420e-02
8.968500e-02
1.061490e-01
1.057740e-01
1.063190e-01
1.077840e-01
1.101710e-01
0.000000e+00
0.000000e+00
0.000000e+00
0.000000e+00
0.000000e+00
3.459960e-02
3.513930e-02
3.602730e-02
3.726390e-02
3.884890e-02
6.449460e-02
6.568030e-02
6.744010e-02
6.977390e-02
7.268170e-02
8.968500e-02
9.162320e-02
9.423810e-02
9.752990e-02
1.014990e-01
1.101710e-01
1.129680e-01
1.164220e-01
1.205320e-01
1.252990e-01
0.000000e+00
0.000000e+00
0.000000e+00
0.000000e+00
0.000000e+00
3.884890e-02
4.065680e-02
4.282840e-02
4.536340e-02
4.826200e-02
7.268170e-02
7.598740e-02
7.992760e-02
8.450260e-02
8.971210e-02
1.014990e-01
1.059920e-01
1.112980e-01
1.174170e-01
1.243500e-01
1.252990e-01
1.306690e-01
1.369390e-01
1.441080e-01
1.521760e-01
0.000000e+00
0.000000e+00
0.000000e+00
0.000000e+00
0.000000e+00
4.826200e-02
5.141330e-02
5.524590e-02
5.976000e-02
6.495540e-02
8.971210e-02
9.535740e-02
1.021400e-01
1.100590e-01
1.191160e-01
1.243500e-01
1.318320e-01
1.406820e-01
1.508980e-01
1.624810e-01
1.521760e-01
1.608380e-01
1.708710e-01
1.822760e-01
1.950520e-01
0.000000e+00
0.000000e+00
0.000000e+00
0.000000e+00
0.000000e+00
6.495540e-02
7.031470e-02
7.694640e-02
8.485020e-02
9.402630e-02
1.191160e-01
1.284420e-01
1.398520e-01
1.533460e-01
1.689240e-01
1.624810e-01
1.743810e-01
1.887160e-01
2.054870e-01
2.246940e-01
1.950520e-01
2.081320e-01
2.235390e-01
2.412730e-01
2.613360e-01
0.000000e+00
0.000000e+00
0.000000e+00
0.000000e+00
0.000000e+00
9.402630e-02
1.028980e-01
1.139700e-01
1.272430e-01
1.427170e-01
1.689240e-01
1.840250e-01
2.026360e-01
2.247580e-01
2.503890e-01
2.246940e-01
2.433820e-01
2.659980e-01
2.925430e-01
3.230170e-01
2.613360e-01
2.809680e-01
3.040570e-01
3.306010e-01
3.606000e-01
0.000000e+00
0.000000e+00
0.000000e+00
0.000000e+00
0.000000e+00
1.427170e-01
1.579790e-01
1.755550e-01
1.954460e-01
2.176510e-01
2.503890e-01
2.758820e-01
3.049930e-01
3.377200e-01
3.740640e-01
3.230170e-01
3.537100e-01
3.883120e-01
4.268210e-01
4.692390e-01
3.606000e-01
3.914630e-01
4.255130e-01
4.627510e-01
5.031750e-01
0.000000e+00
0.000000e+00
0.000000e+00
0.000000e+00
0.000000e+00
2.176510e-01
2.433460e-01
2.682990e-01
2.925090e-01
3.159770e-01
3.740640e-01
4.164580e-01
4.578570e-01
4.982600e-01
5.376680e-01
4.692390e-01
5.193360e-01
5.686730e-01
6.172520e-01
6.650710e-01
5.031750e-01
5.519790e-01
6.007490e-01
6.494850e-01
6.981880e-01
0.000000e+00
0.000000e+00
0.000000e+00
0.000000e+00
0.000000e+00
3.159770e-01
3.471320e-01
3.719370e-01
3.903900e-01
4.024930e-01
5.376680e-01
5.899410e-01
6.329290e-01
6.666310e-01
6.910480e-01
6.650710e-01
7.284260e-01
7.829760e-01
8.287220e-01
8.656640e-01
6.981880e-01
7.625870e-01
8.220790e-01
8.766640e-01
9.263410e-01
0.000000e+00
0.000000e+00
0.000000e+00
0.000000e+00
0.000000e+00
4.024930e-01
4.094130e-01
4.080580e-01
3.984290e-01
3.805260e-01
6.910480e-01
7.083300e-01
7.127210e-01
7.042190e-01
6.828260e-01
8.656640e-01
8.967530e-01
9.139890e-01
9.173710e-01
9.069000e-01
9.263410e-01
9.746820e-01
1.011860e+00
1.037880e+00
1.052750e+00
0.000000e+00
0.000000e+00
0.000000e+00
0.000000e+00
0.000000e+00
3.805260e-01
3.381610e-01
2.946100e-01
2.498710e-01
2.039460e-01
6.828260e-01
6.223370e-01
5.568590e-01
4.863920e-01
4.109360e-01
9.069000e-01
8.525280e-01
7.867480e-01
7.095620e-01
6.209690e-01
1.052750e+00
1.028730e+00
9.842770e-01
9.193810e-01
8.340450e-01
0.000000e+00
0.000000e+00
0.000000e+00
0.000000e+00
0.000000e+00
2.039460e-01
1.624300e-01
1.232430e-01
8.638610e-02
5.185870e-02
4.109360e-01
3.362670e-01
2.644770e-01
1.955660e-01
1.295330e-01
6.209690e-01
5.215120e-01
4.237030e-01
3.275390e-01
2.330230e-01
8.340450e-01
7.181650e-01
6.009190e-01
4.823070e-01
3.623290e-01
0.000000e+00
0.000000e+00
0.000000e+00
0.000000e+00
0.000000e+00
5.185870e-02
2.981940e-02
1.318970e-02
1.969790e-03
-3.840470e-03
1.295330e-01
8.713850e-02
5.502180e-02
3.318310e-02
2.162220e-02
2.330230e-01
1.719570e-01
1.254960e-01
9.363990e-02
7.638800e-02
3.623290e-01
2.842760e-01
2.246130e-01
1.833400e-01
1.604570e-01
0.000000e+00
0.000000e+00
0.000000e+00
0.000000e+00
0.000000e+00
-3.840470e-03
-9.698450e-03
-9.744480e-03
-3.978570e-03
7.599300e-03
2.162220e-02
9.887200e-03
7.821670e-03
1.542560e-02
3.269890e-02
7.638800e-02
5.875700e-02
5.269850e-02
5.821250e-02
7.529900e-02
1.604570e-01
1.369110e-01
1.248860e-01
1.243820e-01
1.353990e-01
0.000000e+00
0.000000e+00
0.000000e+00
0.000000e+00
0.000000e+00
7.599300e-03
1.511540e-02
2.116120e-02
2.573670e-02
2.884200e-02
3.269890e-02
4.414400e-02
5.303320e-02
5.936670e-02
6.314440e-02
7.529900e-02
8.708580e-02
9.561620e-02
1.008900e-01
1.029070e-01
1.353990e-01
1.439410e-01
1.489100e-01
1.503060e-01
1.481300e-01
0.000000e+00
0.000000e+00
0.000000e+00
0.000000e+00
0.000000e+00
2.884200e-02
3.206540e-02
3.410040e-02
3.494690e-02
3.460500e-02
6.314440e-02
6.712620e-02
6.934190e-02
6.979150e-02
6.847490e-02
1.029070e-01
1.051820e-01
1.057240e-01
1.045340e-01
1.016100e-01
1.481300e-01
1.462340e-01
1.432480e-01
1.391740e-01
1.340100e-01
0.000000e+00
0.000000e+00
0.000000e+00
0.000000e+00
0.000000e+00
3.460500e-02
3.489470e-02
3.468400e-02
3.397290e-02
3.276120e-02
6.847490e-02
6.818950e-02
6.717280e-02
6.542470e-02
6.294530e-02
1.016100e-01
9.988430e-02
9.746620e-02
9.435550e-02
9.055240e-02
1.340100e-01
1.299790e-01
1.255640e-01
1.207650e-01
1.155820e-01
0.000000e+00
0.000000e+00
0.000000e+00
0.000000e+00
0.000000e+00
3.276120e-02
3.238010e-02
3.102690e-02
2.870180e-02
2.540460e-02
6.294530e-02
6.158480e-02
5.898090e-02
5.513350e-02
5.004260e-02
9.055240e-02
8.761420e-02
8.386170e-02
7.929500e-02
7.391400e-02
1.155820e-01
1.104680e-01
1.056700e-01
1.011860e-01
9.701890e-02
1.002660e-01
1.092650e-01
1.147320e-01
1.166670e-01
1.150690e-01
9.945850e-02
1.076190e-01
1.135510e-01
1.172550e-01
1.187320e-01
9.848610e-02
1.056350e-01
1.115610e-01
1.162660e-01
1.197480e-01
9.734850e-02
1.033140e-01
1.087640e-01
1.136980e-01
1.181160e-01
9.604590e-02
1.006560e-01
1.051580e-01
1.095510e-01
1.138370e-01
1.150690e-01
1.121830e-01
1.097350e-01
1.077230e-01
1.061490e-01
1.187320e-01
1.184370e-01
1.180110e-01
1.174550e-01
1.167690e-01
1.197480e-01
1.213860e-01
1.225220e-01
1.231550e-01
1.232870e-01
1.181160e-01
1.210300e-01
1.232660e-01
1.248230e-01
1.257010e-01
1.138370e-01
1.173700e-01
1.202440e-01
1.224580e-01
1.240130e-01
1.061490e-01
1.057740e-01
1.063190e-01
1.077840e-01
1.101710e-01
1.167690e-01
1.168480e-01
1.177930e-01
1.196060e-01
1.222860e-01
1.232870e-01
1.238450e-01
1.251740e-01
1.272740e-01
1.301450e-01
1.257010e-01
1.267640e-01
1.284600e-01
1.307880e-01
1.337490e-01
1.240130e-01
1.256060e-01
1.276510e-01
1.301490e-01
1.330980e-01
1.101710e-01
1.129680e-01
1.164220e-01
1.205320e-01
1.252990e-01
1.222860e-01
1.254590e-01
1.292840e-01
1.337600e-01
1.388880e-01
1.301450e-01
1.335500e-01
1.375890e-01
1.422600e-01
1.475630e-01
1.337490e-01
1.372420e-01
1.413350e-01
1.460290e-01
1.513240e-01
1.330980e-01
1.365330e-01
1.405240e-01
1.450700e-01
1.501720e-01
1.252990e-01
1.306690e-01
1.369390e-01
1.441080e-01
1.521760e-01
1.388880e-01
1.445750e-01
1.511530e-01
1.586230e-01
1.669850e-01
1.475630e-01
1.533810e-01
1.600630e-01
1.676090e-01
1.760200e-01
1.513240e-01
1.570890e-01
1.636700e-01
1.710670e-01
1.792810e-01
1.501720e-01
1.556980e-01
1.619730e-01
1.689970e-01
1.767690e-01
1.521760e-01
1.608380e-01
1.708710e-01
1.822760e-01
1.950520e-01
1.669850e-01
1.758920e-01
1.861270e-01
1.976900e-01
2.105810e-01
1.760200e-01
1.849260e-01
1.951010e-01
2.065450e-01
2.192580e-01
1.792810e-01
1.879400e-01
1.977940e-01
2.088410e-01
2.210830e-01
1.767690e-01
1.849350e-01
1.942050e-01
2.045790e-01
2.160560e-01
1.950520e-01
2.081320e-01
2.235390e-01
2.412730e-01
2.613360e-01
2.105810e-01
2.235830e-01
2.388690e-01
2.564370e-01
2.762880e-01
2.192580e-01
2.319380e-01
2.468370e-01
2.639580e-01
2.832980e-01
2.210830e-01
2.331950e-01
2.474450e-01
2.638360e-01
2.823660e-01
2.160560e-01
2.273540e-01
2.406930e-01
2.560720e-01
2.734910e-01
2.613360e-01
2.809680e-01
3.040570e-01
3.306010e-01
3.606000e-01
2.762880e-01
2.952650e-01
3.178100e-01
3.439240e-01
3.736060e-01
2.832980e-01
3.013560e-01
3.231000e-01
3.485310e-01
3.776490e-01
2.823660e-01
2.992400e-01
3.199250e-01
3.444220e-01
3.727280e-01
2.734910e-01
2.889190e-01
3.082870e-01
3.315950e-01
3.588440e-01
3.606000e-01
3.914630e-01
4.255130e-01
4.627510e-01
5.031750e-01
3.736060e-01
4.032500e-01
4.366620e-01
4.738420e-01
5.147890e-01
3.776490e-01
4.057950e-01
4.382720e-01
4.750790e-01
5.162160e-01
3.727280e-01
3.990980e-01
4.303430e-01
4.664620e-01
5.074550e-01
3.588440e-01
3.831590e-01
4.128750e-01
4.479910e-01
4.885070e-01
5.031750e-01
5.519790e-01
6.007490e-01
6.494850e-01
6.981880e-01
5.147890e-01
5.641360e-01
6.141340e-01
6.647830e-01
7.160840e-01
5.162160e-01
5.656270e-01
6.163010e-01
6.682390e-01
7.214400e-01
5.074550e-01
5.564520e-01
6.072510e-01
6.598530e-01
7.142560e-01
4.885070e-01
5.366120e-01
5.869840e-01
6.396240e-01
6.945320e-01
6.981880e-01
7.625870e-01
8.220790e-01
8.766640e-01
9.263410e-01
7.160840e-01
7.867930e-01
8.523110e-01
9.126370e-01
9.677720e-01
7.214400e-01
7.980040e-01
8.691490e-01
9.348740e-01
9.951790e-01
7.142560e-01
7.962210e-01
8.725940e-01
9.433740e-01
1.008560e+00
6.945320e-01
7.814420e-01
8.626440e-01
9.381380e-01
1.007920e+00
9.263410e-01
9.746820e-01
1.011860e+00
1.037880e+00
1.052750e+00
9.677720e-01
1.025000e+00
1.071200e+00
1.106360e+00
1.130490e+00
9.951790e-01
1.060750e+00
1.115140e+00
1.158330e+00
1.190330e+00
1.008560e+00
1.081940e+00
1.143680e+00
1.193790e+00
1.232280e+00
1.007920e+00
1.088550e+00
1.156820e+00
1.212750e+00
1.256340e+00
1.052750e+00
1.028730e+00
9.842770e-01
9.193810e-01
8.340450e-01
1.130490e+00
1.118980e+00
1.090960e+00
1.046440e+00
9.854150e-01
1.190330e+00
1.186840e+00
1.170230e+00
1.140510e+00
1.097660e+00
1.232280e+00
1.232330e+00
1.222100e+00
1.201580e+00
1.170780e+00
1.256340e+00
1.255440e+00
1.246550e+00
1.229660e+00
1.204780e+00
8.340450e-01
7.181650e-01
6.009190e-01
4.823070e-01
3.623290e-01
9.854150e-01
8.815990e-01
7.675240e-01
6.431920e-01
5.086010e-01
1.097660e+00
1.007980e+00
9.021690e-01
7.802290e-01
6.421590e-01
1.170780e+00
1.097310e+00
1.004850e+00
8.934180e-01
7.630030e-01
1.204780e+00
1.149590e+00
1.075580e+00
9.827600e-01
8.711340e-01
3.623290e-01
2.842760e-01
2.246130e-01
1.833400e-01
1.604570e-01
5.086010e-01
4.137700e-01
3.388510e-01
2.838430e-01
2.487460e-01
6.421590e-01
5.361600e-01
4.494180e-01
3.819340e-01
3.337080e-01
7.630030e-01
6.514440e-01
5.563140e-01
4.776140e-01
4.153450e-01
8.711340e-01
7.596230e-01
6.595390e-01
5.708830e-01
4.936550e-01
1.604570e-01
1.369110e-01
1.248860e-01
1.243820e-01
1.353990e-01
2.487460e-01
2.133510e-01
1.910620e-01
1.818780e-01
1.858000e-01
3.337080e-01
2.866840e-01
2.539200e-01
2.354160e-01
2.311710e-01
4.153450e-01
3.569100e-01
3.134600e-01
2.849940e-01
2.715130e-01
4.936550e-01
4.240290e-01
3.696820e-01
3.306140e-01
3.068250e-01
1.353990e-01
1.439410e-01
1.489100e-01
1.503060e-01
1.481300e-01
1.858000e-01
1.910390e-01
1.924190e-01
1.899410e-01
1.836030e-01
2.311710e-01
2.320860e-01
2.292560e-01
2.226830e-01
2.123660e-01
2.715130e-01
2.670820e-01
2.594220e-01
2.485350e-01
2.344190e-01
3.068250e-01
2.960260e-01
2.829160e-01
2.674950e-01
2.497620e-01
1.481300e-01
1.462340e-01
1.432480e-01
1.391740e-01
1.340100e-01
1.836030e-01
1.776500e-01
1.712380e-01
1.643680e-01
1.570400e-01
2.123660e-01
2.026300e-01
1.930810e-01
1.837190e-01
1.745450e-01
2.344190e-01
2.211740e-01
2.087770e-01
1.972270e-01
1.865250e-01
2.497620e-01
2.332820e-01
2.183250e-01
2.048910e-01
1.929800e-01
1.340100e-01
1.299790e-01
1.255640e-01
1.207650e-01
1.155820e-01
1.570400e-01
1.513240e-01
1.453500e-01
1.391160e-01
1.326250e-01
1.745450e-01
1.673990e-01
1.601380e-01
1.527640e-01
1.452750e-01
1.865250e-01
1.782030e-01
1.699310e-01
1.617080e-01
1.535330e-01
1.929800e-01
1.837380e-01
1.747270e-01
1.659480e-01
1.574000e-01
1.155820e-01
1.104680e-01
1.056700e-01
1.011860e-01
9.701890e-02
1.326250e-01
1.265030e-01
1.209070e-01
1.158350e-01
1.112880e-01
1.452750e-01
1.383710e-01
1.321630e-01
1.266530e-01
1.218390e-01
1.535330e-01
1.460700e-01
1.394400e-01
1.336400e-01
1.286730e-01
1.574000e-01
1.496030e-01
1.427360e-01
1.367980e-01
1.317900e-01
9.604590e-02
1.006560e-01
1.051580e-01
1.095510e-01
1.138370e-01
9.458900e-02
9.868370e-02
1.027140e-01
1.066790e-01
1.105800e-01
9.299440e-02
9.672110e-02
1.003710e-01
1.039450e-01
1.074420e-01
9.126190e-02
9.476800e-02
9.813000e-02
1.013480e-01
1.044220e-01
8.939170e-02
9.282440e-02
9.599000e-02
9.888840e-02
1.015200e-01
1.138370e-01
1.173700e-01
1.202440e-01
1.224580e-01
1.240130e-01
1.105800e-01
1.140130e-01
1.169640e-01
1.194320e-01
1.214180e-01
1.074420e-01
1.106870e-01
1.136140e-01
1.162230e-01
1.185150e-01
1.044220e-01
1.073910e-01
1.101940e-01
1.128320e-01
1.153040e-01
1.015200e-01
1.041250e-01
1.067040e-01
1.092570e-01
1.117840e-01
1.240130e-01
1.256060e-01
1.276510e-01
1.301490e-01
1.330980e-01
1.214180e-01
1.233850e-01
1.256990e-01
1.283580e-01
1.313650e-01
1.185150e-01
1.207690e-01
1.232850e-01
1.260620e-01
1.291010e-01
1.153040e-01
1.177580e-01
1.204100e-01
1.232600e-01
1.263080e-01
1.117840e-01
1.143510e-01
1.170730e-01
1.199510e-01
1.229840e-01
1.330980e-01
1.365330e-01
1.405240e-01
1.450700e-01
1.501720e-01
1.313650e-01
1.347790e-01
1.387080e-01
1.431530e-01
1.481130e-01
1.291010e-01
1.324790e-01
1.363310e-01
1.406570e-01
1.454580e-01
1.263080e-01
1.296330e-01
1.333920e-01
1.375840e-01
1.422080e-01
1.229840e-01
1.262420e-01
1.298920e-01
1.339320e-01
1.383630e-01
1.501720e-01
1.556980e-01
1.619730e-01
1.689970e-01
1.767690e-01
1.481130e-01
1.534580e-01
1.595050e-01
1.662560e-01
1.737090e-01
1.454580e-01
1.506020e-01
1.564000e-01
1.628540e-01
1.699620e-01
1.422080e-01
1.471310e-01
1.526590e-01
1.587920e-01
1.655300e-01
1.383630e-01
1.430450e-01
1.482810e-01
1.540690e-01
1.604110e-01
1.767690e-01
1.849350e-01
1.942050e-01
2.045790e-01
2.160560e-01
1.737090e-01
1.814970e-01
1.903340e-01
2.002220e-01
2.111600e-01
1.699620e-01
1.773400e-01
1.857070e-01
1.950650e-01
2.054120e-01
1.655300e-01
1.724640e-01
1.803230e-01
1.891060e-01
1.988130e-01
1.604110e-01
1.668700e-01
1.741820e-01
1.823460e-01
1.913630e-01
2.160560e-01
2.273540e-01
2.406930e-01
2.560720e-01
2.734910e-01
2.111600e-01
2.218810e-01
2.345560e-01
2.491850e-01
2.657670e-01
2.054120e-01
2.154890e-01
2.274150e-01
2.411890e-01
2.568120e-01
1.988130e-01
2.081780e-01
2.192680e-01
2.320840e-01
2.466270e-01
1.913630e-01
1.999470e-01
2.101160e-01
2.218710e-01
2.352110e-01
2.734910e-01
2.889190e-01
3.082870e-01
3.315950e-01
3.588440e-01
2.657670e-01
2.799980e-01
2.983450e-01
3.208050e-01
3.473810e-01
2.568120e-01
2.697750e-01
2.869300e-01
3.082780e-01
3.338180e-01
2.466270e-01
2.582480e-01
2.740430e-01
2.940130e-01
3.181560e-01
2.352110e-01
2.454170e-01
2.596840e-01
2.780090e-01
3.003950e-01
3.588440e-01
3.831590e-01
4.128750e-01
4.479910e-01
4.885070e-01
3.473810e-01
3.695390e-01
3.977700e-01
4.320740e-01
4.724510e-01
3.338180e-01
3.531770e-01
3.793970e-01
4.124770e-01
4.524180e-01
3.181560e-01
3.340740e-01
3.577550e-01
3.891990e-01
4.284070e-01
3.003950e-01
3.122280e-01
3.328440e-01
3.622410e-01
4.004190e-01
4.885070e-01
5.366120e-01
5.869840e-01
6.396240e-01
6.945320e-01
4.724510e-01
5.195790e-01
5.689030e-01
6.204240e-01
6.741410e-01
4.524180e-01
4.968020e-01
5.431850e-01
5.915650e-01
6.419440e-01
4.284070e-01
4.682820e-01
5.098290e-01
5.530490e-01
5.979410e-01
4.004190e-01
4.340180e-01
4.688360e-01
5.048740e-01
5.421310e-01
6.945320e-01
7.814420e-01
8.626440e-01
9.381380e-01
1.007920e+00
6.741410e-01
7.669290e-01
8.521470e-01
9.297980e-01
9.998800e-01
6.419440e-01
7.378310e-01
8.233190e-01
8.984080e-01
9.630990e-01
5.979410e-01
6.941500e-01
7.761590e-01
8.439700e-01
8.975810e-01
5.421310e-01
6.358840e-01
7.106680e-01
7.664820e-01
8.033260e-01
1.007920e+00
1.088550e+00
1.156820e+00
1.212750e+00
1.256340e+00
9.998800e-01
1.084970e+00
1.157890e+00
1.218630e+00
1.267190e+00
9.630990e-01
1.049800e+00
1.125170e+00
1.189210e+00
1.241910e+00
8.975810e-01
9.830270e-01
1.058660e+00
1.124480e+00
1.180480e+00
8.033260e-01
8.846530e-01
9.583600e-01
1.024450e+00
1.082920e+00
1.256340e+00
1.255440e+00
1.246550e+00
1.229660e+00
1.204780e+00
1.267190e+00
1.268520e+00
1.262090e+00
1.247920e+00
1.225990e+00
1.241910e+00
1.244780e+00
1.241690e+00
1.232620e+00
1.217580e+00
1.180480e+00
1.184230e+00
1.185320e+00
1.183770e+00
1.179560e+00
1.082920e+00
1.086850e+00
1.093000e+00
1.101360e+00
1.111930e+00
1.204780e+00
1.149590e+00
1.075580e+00
9.827600e-01
8.711340e-01
1.225990e+00
1.170280e+00
1.101960e+00
1.021020e+00
9.274620e-01
1.217580e+00
1.163450e+00
1.101710e+00
1.032360e+00
9.553920e-01
1.179560e+00
1.129090e+00
1.074830e+00
1.016770e+00
9.549240e-01
1.111930e+00
1.067200e+00
1.021310e+00
9.742620e-01
9.260590e-01
8.711340e-01
7.596230e-01
6.595390e-01
5.708830e-01
4.936550e-01
9.274620e-01
8.253710e-01
7.292750e-01
6.391750e-01
5.550700e-01
9.553920e-01
8.641850e-01
7.742390e-01
6.855550e-01
5.981320e-01
9.549240e-01
8.760650e-01
7.944310e-01
7.100240e-01
6.228430e-01
9.260590e-01
8.610100e-01
7.898510e-01
7.125810e-01
6.292010e-01
4.936550e-01
4.240290e-01
3.696820e-01
3.306140e-01
3.068250e-01
5.550700e-01
4.839580e-01
4.246130e-01
3.770350e-01
3.412250e-01
5.981320e-01
5.287070e-01
4.672140e-01
4.136530e-01
3.680230e-01
6.228430e-01
5.582780e-01
4.974850e-01
4.404660e-01
3.872200e-01
6.292010e-01
5.726680e-01
5.154260e-01
4.574750e-01
3.988140e-01
3.068250e-01
2.960260e-01
2.829160e-01
2.674950e-01
2.497620e-01
3.412250e-01
3.209150e-01
3.004980e-01
2.799750e-01
2.593440e-01
3.680230e-01
3.393900e-01
3.126910e-01
2.879280e-01
2.650980e-01
3.872200e-01
3.514510e-01
3.194960e-01
2.913540e-01
2.670250e-01
3.988140e-01
3.570990e-01
3.209120e-01
2.902540e-01
2.651250e-01
2.497620e-01
2.332820e-01
2.183250e-01
2.048910e-01
1.929800e-01
2.593440e-01
2.405990e-01
2.238030e-01
2.089560e-01
1.960570e-01
2.650980e-01
2.447620e-01
2.266750e-01
2.108390e-01
1.972520e-01
2.670250e-01
2.457700e-01
2.269420e-01
2.105400e-01
1.965660e-01
2.651250e-01
2.436240e-01
2.246020e-01
2.080600e-01
1.939970e-01
1.929800e-01
1.837380e-01
1.747270e-01
1.659480e-01
1.574000e-01
1.960570e-01
1.860370e-01
1.764740e-01
1.673690e-01
1.587210e-01
1.972520e-01
1.866810e-01
1.767600e-01
1.674890e-01
1.588680e-01
1.965660e-01
1.856690e-01
1.755830e-01
1.663070e-01
1.578400e-01
1.939970e-01
1.830030e-01
1.729450e-01
1.638230e-01
1.556380e-01
1.574000e-01
1.496030e-01
1.427360e-01
1.367980e-01
1.317900e-01
1.587210e-01
1.508060e-01
1.438940e-01
1.379850e-01
1.330790e-01
1.588680e-01
1.509310e-01
1.440520e-01
1.382310e-01
1.334670e-01
1.578400e-01
1.499790e-01
1.432110e-01
1.375370e-01
1.329560e-01
1.556380e-01
1.479500e-01
1.413710e-01
1.359030e-01
1.315440e-01
8.939170e-02
9.282440e-02
9.599000e-02
9.888840e-02
1.015200e-01
8.740010e-02
9.059900e-02
9.354290e-02
9.623210e-02
9.866630e-02
8.530680e-02
8.826790e-02
9.099630e-02
9.349180e-02
9.575450e-02
8.311190e-02
8.583140e-02
8.834990e-02
9.066760e-02
9.278420e-02
8.081530e-02
8.328930e-02
8.560400e-02
8.775940e-02
8.975550e-02
1.015200e-01
1.041250e-01
1.067040e-01
1.092570e-01
1.117840e-01
9.866630e-02
1.010410e-01
1.034650e-01