<?xml version="1.0"?>
<VTKFile type="UnstructuredGrid" version="0.1" byte_order="LittleEndian" compressor="vtkZLibDataCompressor">
<UnstructuredGrid>
<Piece NumberOfPoints="10000" NumberOfCells="6400">
<Points>
<DataArray type="Float32" NumberOfComponents="3" format="ascii">
-3.360000e+00 0.000000e+00 0.000000e+00
-3.276000e+00 0.000000e+00 0.000000e+00
-3.192000e+00 0.000000e+00 0.000000e+00
-3.108000e+00 0.000000e+00 0.000000e+00
-3.024000e+00 0.000000e+00 0.000000e+00
-3.360000e+00 6.412500e-02 0.000000e+00
-3.276000e+00 6.412500e-02 0.000000e+00
-3.192000e+00 6.412500e-02 0.000000e+00
-3.108000e+00 6.412500e-02 0.000000e+00
-3.024000e+00 6.412500e-02 0.000000e+00
-3.360000e+00 1.282500e-01 0.000000e+00
-3.276000e+00 1.282500e-01 0.000000e+00
-3.192000e+00 1.282500e-01 0.000000e+00
-3.108000e+00 1.282500e-01 0.000000e+00
-3.024000e+00 1.282500e-01 0.000000e+00
-3.360000e+00 1.923750e-01 0.000000e+00
-3.276000e+00 1.923750e-01 0.000000e+00
-3.192000e+00 1.923750e-01 0.000000e+00
-3.108000e+00 1.923750e-01 0.000000e+00
-3.024000e+00 1.923750e-01 0.000000e+00
-3.360000e+00 2.565000e-01 0.000000e+00
-3.276000e+00 2.565000e-01 0.000000e+00
-3.192000e+00 2.565000e-01 0.000000e+00
-3.108000e+00 2.565000e-01 0.000000e+00
-3.024000e+00 2.565000e-01 0.000000e+00
-3.024000e+00 0.000000e+00 0.000000e+00
-2.940000e+00 0.000000e+00 0.000000e+00
-2.856000e+00 0.000000e+00 0.000000e+00
-2.772000e+00 0.000000e+00 0.000000e+00
-2.688000e+00 0.000000e+00 0.000000e+00
-3.024000e+00 6.412500e-02 0.000000e+00
-2.940000e+00 6.412500e-02 0.000000e+00
-2.856000e+00 6.412500e-02 0.000000e+00
-2.772000e+00 6.412500e-02 0.000000e+00
-2.688000e+00 6.412500e-02 0.000000e+00
-3.024000e+00 1.282500e-01 0.000000e+00
-2.940000e+00 1.282500e-01 0.000000e+00
-2.856000e+00 1.282500e-01 0.000000e+00
-2.772000e+00 1.282500e-01 0.000000e+00
-2.688000e+00 1.282500e-01 0.000000e+00
-3.024000e+00 1.923750e-01 0.000000e+00
-2.940000e+00 1.923750e-01 0.000000e+00
-2.856000e+00 1.923750e-01 0.000000e+00
-2.772000e+00 1.923750e-01 0.000000e+00
-2.688000e+00 1.923750e-01 0.000000e+00
-3.024000e+00 2.565000e-01 0.000000e+00
-2.940000e+00 2.565000e-01 0.000000e+00
-2.856000e+00 2.565000e-01 0.000000e+00
-2.772000e+00 2.565000e-01 0.000000e+00
-2.688000e+00 2.565000e-01 0.000000e+00
-2.688000e+00 0.000000e+00 0.000000e+00
-2.604000e+00 0.000000e+00 0.000000e+00
-2.520000e+00 0.000000e+00 0.000000e+00
-2.436000e+00 0.000000e+00 0.000000e+00
-2.352000e+00 0.000000e+00 0.000000e+00
-2.688000e+00 6.412500e-02 0.000000e+00
-2.604000e+00 6.412500e-02 0.000000e+00
-2.520000e+00 6.412500e-02 0.000000e+00
-2.436000e+00 6.412500e-02 0.000000e+00
-2.352000e+00 6.412500e-02 0.000000e+00
-2.688000e+00 1.282500e-01 0.000000e+00
-2.604000e+00 1.282500e-01 0.000000e+00
-2.520000e+00 1.282500e-01 0.000000e+00
-2.436000e+00 1.282500e-01 0.000000e+00
-2.352000e+00 1.282500e-01 0.000000e+00
-2.688000e+00 1.923750e-01 0.000000e+00
-2.604000e+00 1.923750e-01 0.000000e+00
-2.520000e+00 1.923750e-01 0.000000e+00
-2.436000e+00 1.923750e-01 0.000000e+00
-2.352000e+00 1.923750e-01 0.000000e+00
-2.688000e+00 2.565000e-01 0.000000e+00
-2.604000e+00 2.565000e-01 0.000000e+00
-2.520000e+00 2.565000e-01 0.000000e+00
-2.436000e+00 2.565000e-01 0.000000e+00
-2.352000e+00 2.565000e-01 0.000000e+00
-2.352000e+00 0.000000e+00 0.000000e+00
-2.268000e+00 0.000000e+00 0.000000e+00
-2.184000e+00 0.000000e+00 0.000000e+00
-2.100000e+00 0.000000e+00 0.000000e+00
-2.016000e+00 0.000000e+00 0.000000e+00
-2.352000e+00 6.412500e-02 0.000000e+00
-2.268000e+00 6.412500e-02 0.000000e+00
-2.184000e+00 6.412500e-02 0.000000e+00
-2.100000e+00 6.412500e-02 0.000000e+00
-2.016000e+00 6.412500e-02 0.000000e+00
-2.352000e+00 1.282500e-01 0.000000e+00
-2.268000e+00 1.282500e-01 0.000000e+00
-2.184000e+00 1.282500e-01 0.000000e+00
-2.100000e+00 1.282500e-01 0.000000e+00
-2.016000e+00 1.282500e-01 0.000000e+00
-2.352000e+00 1.923750e-01 0.000000e+00
-2.268000e+00 1.923750e-01 0.000000e+00
-2.184000e+00 1.923750e-01 0.000000e+00
-2.100000e+00 1.923750e-01 0.000000e+00
-2.016000e+00 1.923750e-01 0.000000e+00
-2.352000e+00 2.565000e-01 0.000000e+00
-2.268000e+00 2.565000e-01 0.000000e+00
-2.184000e+00 2.565000e-01 0.000000e+00
-2.100000e+00 2.565000e-01 0.000000e+00
-2.016000e+00 2.565000e-01 0.000000e+00
-2.016000e+00 0.000000e+00 0.000000e+00
-1.932000e+00 0.000000e+00 0.000000e+00
-1.848000e+00 0.000000e+00 0.000000e+00
-1.764000e+00 0.000000e+00 0.000000e+00
-1.680000e+00 0.000000e+00 0.000000e+00
-2.016000e+00 6.412500e-02 0.000000e+00
-1.932000e+00 6.412500e-02 0.000000e+00
-1.848000e+00 6.412500e-02 0.000000e+00
-1.764000e+00 6.412500e-02 0.000000e+00
-1.680000e+00 6.412500e-02 0.000000e+00
-2.016000e+00 1.282500e-01 0.000000e+00
-1.932000e+00 1.282500e-01 0.000000e+00
-1.848000e+00 1.282500e-01 0.000000e+00
-1.764000e+00 1.282500e-01 0.000000e+00
-1.680000e+00 1.282500e-01 0.000000e+00
-2.016000e+00 1.923750e-01 0.000000e+00
-1.932000e+00 1.923750e-01 0.000000e+00
-1.848000e+00 1.923750e-01 0.000000e+00
-1.764000e+00 1.923750e-01 0.000000e+00
-1.680000e+00 1.923750e-01 0.000000e+00
-2.016000e+00 2.565000e-01 0.000000e+00
-1.932000e+00 2.565000e-01 0.000000e+00
-1.848000e+00 2.565000e-01 0.000000e+00
-1.764000e+00 2.565000e-01 0.000000e+00
-1.680000e+00 2.565000e-01 0.000000e+00
-1.680000e+00 0.000000e+00 0.000000e+00
-1.596000e+00 0.000000e+00 0.000000e+00
-1.512000e+00 0.000000e+00 0.000000e+00
-1.428000e+00 0.000000e+00 0.000000e+00
-1.344000e+00 0.000000e+00 0.000000e+00
-1.680000e+00 6.412500e-02 0.000000e+00
-1.596000e+00 6.412500e-02 0.000000e+00
-1.512000e+00 6.412500e-02 0.000000e+00
-1.428000e+00 6.412500e-02 0.000000e+00
-1.344000e+00 6.412500e-02 0.000000e+00
-1.680000e+00 1.282500e-01 0.000000e+00
-1.596000e+00 1.282500e-01 0.000000e+00
-1.512000e+00 1.282500e-01 0.000000e+00
-1.428000e+00 1.282500e-01 0.000000e+00
-1.344000e+00 1.282500e-01 0.000000e+00
-1.680000e+00 1.923750e-01 0.000000e+00
-1.596000e+00 1.923750e-01 0.000000e+00
-1.512000e+00 1.923750e-01 0.000000e+00
-1.428000e+00 1.923750e-01 0.000000e+00
-1.344000e+00 1.923750e-01 0.000000e+00
-1.680000e+00 2.565000e-01 0.000000e+00
-1.596000e+00 2.565000e-01 0.000000e+00
-1.512000e+00 2.565000e-01 0.000000e+00
-1.428000e+00 2.565000e-01 0.000000e+00
-1.344000e+00 2.565000e-01 0.000000e+00
-1.344000e+00 0.000000e+00 0.000000e+00
-1.260000e+00 0.000000e+00 0.000000e+00
-1.176000e+00 0.000000e+00 0.000000e+00
-1.092000e+00 0.000000e+00 0.000000e+00
-1.008000e+00 0.000000e+00 0.000000e+00
-1.344000e+00 6.412500e-02 0.000000e+00
-1.260000e+00 6.412500e-02 0.000000e+00
-1.176000e+00 6.412500e-02 0.000000e+00
-1.092000e+00 6.412500e-02 0.000000e+00
-1.008000e+00 6.412500e-02 0.000000e+00
-1.344000e+00 1.282500e-01 0.000000e+00
-1.260000e+00 1.282500e-01 0.000000e+00
-1.176000e+00 1.282500e-01 0.000000e+00
-1.092000e+00 1.282500e-01 0.000000e+00
-1.008000e+00 1.282500e-01 0.000000e+00
-1.344000e+00 1.923750e-01 0.000000e+00
-1.260000e+00 1.923750e-01 0.000000e+00
-1.176000e+00 1.923750e-01 0.000000e+00
-1.092000e+00 1.923750e-01 0.000000e+00
-1.008000e+00 1.923750e-01 0.000000e+00
-1.344000e+00 2.565000e-01 0.000000e+00
-1.260000e+00 2.565000e-01 0.000000e+00
-1.176000e+00 2.565000e-01 0.000000e+00
-1.092000e+00 2.565000e-01 0.000000e+00
-1.008000e+00 2.565000e-01 0.000000e+00
-1.008000e+00 0.000000e+00 0.000000e+00
-9.240000e-01 0.000000e+00 0.000000e+00
-8.400000e-01 0.000000e+00 0.000000e+00
-7.560000e-01 0.000000e+00 0.000000e+00
-6.720000e-01 0.000000e+00 0.000000e+00
-1.008000e+00 6.412500e-02 0.000000e+00
-9.240000e-01 6.412500e-02 0.000000e+00
-8.400000e-01 6.412500e-02 0.000000e+00
-7.560000e-01 6.412500e-02 0.000000e+00
-6.720000e-01 6.412500e-02 0.000000e+00
-1.008000e+00 1.282500e-01 0.000000e+00
-9.240000e-01 1.282500e-01 0.000000e+00
-8.400000e-01 1.282500e-01 0.000000e+00
-7.560000e-01 1.282500e-01 0.000000e+00
-6.720000e-01 1.282500e-01 0.000000e+00
-1.008000e+00 1.923750e-01 0.000000e+00
-9.240000e-01 1.923750e-01 0.000000e+00
-8.400000e-01 1.923750e-01 0.000000e+00
-7.560000e-01 1.923750e-01 0.000000e+00
-6.720000e-01 1.923750e-01 0.000000e+00
-1.008000e+00 2.565000e-01 0.000000e+00
-9.240000e-01 2.565000e-01 0.000000e+00
-8.400000e-01 2.565000e-01 0.000000e+00
-7.560000e-01 2.565000e-01 0.000000e+00
-6.720000e-01 2.565000e-01 0.000000e+00
-6.720000e-01 0.000000e+00 0.000000e+00
-5.880000e-01 0.000000e+00 0.000000e+00
-5.040000e-01 0.000000e+00 0.000000e+00
-4.200000e-01 0.000000e+00 0.000000e+00
-3.360000e-01 0.000000e+00 0.000000e+00
-6.720000e-01 6.412500e-02 0.000000e+00
-5.880000e-01 6.412500e-02 0.000000e+00
-5.040000e-01 6.412500e-02 0.000000e+00
-4.200000e-01 6.412500e-02 0.000000e+00
-3.360000e-01 6.412500e-02 0.000000e+00
-6.720000e-01 1.282500e-01 0.000000e+00
-5.880000e-01 1.282500e-01 0.000000e+00
-5.040000e-01 1.282500e-01 0.000000e+00
-4.200000e-01 1.282500e-01 0.000000e+00
-3.360000e-01 1.282500e-01 0.000000e+00
-6.720000e-01 1.923750e-01 0.000000e+00
-5.880000e-01 1.923750e-01 0.000000e+00
-5.040000e-01 1.923750e-01 0.000000e+00
-4.200000e-01 1.923750e-01 0.000000e+00
-3.360000e-01 1.923750e-01 0.000000e+00
-6.720000e-01 2.565000e-01 0.000000e+00
-5.880000e-01 2.565000e-01 0.000000e+00
-5.040000e-01 2.565000e-01 0.000000e+00
-4.200000e-01 2.565000e-01 0.000000e+00
-3.360000e-01 2.565000e-01 0.000000e+00
-3.360000e-01 0.000000e+00 0.000000e+00
-2.520000e-01 0.000000e+00 0.000000e+00
-1.680000e-01 0.000000e+00 0.000000e+00
-8.400000e-02 0.000000e+00 0.000000e+00
-4.440890e-16 0.000000e+00 0.000000e+00
-3.360000e-01 6.412500e-02 0.000000e+00
-2.520000e-01 6.412500e-02 0.000000e+00
-1.680000e-01 6.412500e-02 0.000000e+00
-8.400000e-02 6.412500e-02 0.000000e+00
-4.440890e-16 6.412500e-02 0.000000e+00
-3.360000e-01 1.282500e-01 0.000000e+00
-2.520000e-01 1.282500e-01 0.000000e+00
-1.680000e-01 1.282500e-01 0.000000e+00
-8.400000e-02 1.282500e-01 0.000000e+00
-4.440890e-16 1.282500e-01 0.000000e+00
-3.360000e-01 1.923750e-01 0.000000e+00
-2.520000e-01 1.923750e-01 0.000000e+00
-1.680000e-01 1.923750e-01 0.000000e+00
[...]
<PointData>
<DataArray type="Float32" Name="V1" format="ascii">
0.000000e+00
0.000000e+00
0.000000e+00
0.000000e+00
0.000000e+00
6.347820e-02
5.960570e-02
5.556360e-02
5.135190e-02
4.697050e-02
1.013490e-01
9.768250e-02
9.324980e-02
8.805050e-02
8.208470e-02
1.136110e-01
1.142300e-01
1.130590e-01
1.100960e-01
1.053430e-01
1.002660e-01
1.092490e-01
1.149900e-01
1.174880e-01
1.167440e-01
0.000000e+00
0.000000e+00
0.000000e+00
0.000000e+00
0.000000e+00
4.697050e-02
4.255380e-02
3.970840e-02
3.843430e-02
3.873140e-02
8.208470e-02
7.594220e-02
7.199630e-02
7.024710e-02
7.069440e-02
1.053430e-01
1.001650e-01
9.686370e-02
9.543830e-02
9.588880e-02
1.167440e-01
1.152230e-01
1.143110e-01
1.140080e-01
1.143150e-01
0.000000e+00
0.000000e+00
0.000000e+00
0.000000e+00
0.000000e+00
3.873140e-02
3.914470e-02
3.977580e-02
4.062490e-02
4.169190e-02
7.069440e-02
7.147730e-02
7.269620e-02
7.435110e-02
7.644190e-02
9.588880e-02
9.699780e-02
9.876110e-02
1.011780e-01
1.042500e-01
1.143150e-01
1.157060e-01
1.179700e-01
1.211070e-01
1.251160e-01
0.000000e+00
0.000000e+00
0.000000e+00
0.000000e+00
0.000000e+00
4.169190e-02
4.288210e-02
4.449280e-02
4.652400e-02
4.897580e-02
7.644190e-02
7.876210e-02
8.177020e-02
8.546600e-02
8.984970e-02
1.042500e-01
1.076400e-01
1.118320e-01
1.168260e-01
1.226220e-01
1.251160e-01
1.295160e-01
1.346790e-01
1.406040e-01
1.472920e-01
0.000000e+00
0.000000e+00
0.000000e+00
0.000000e+00
0.000000e+00
4.897580e-02
5.166210e-02
5.486640e-02
5.858840e-02
6.282830e-02
8.984970e-02
9.464560e-02
1.003250e-01
1.068870e-01
1.143320e-01
1.226220e-01
1.289500e-01
1.363750e-01
1.448950e-01
1.545100e-01
1.472920e-01
1.545770e-01
1.630170e-01
1.726120e-01
1.833640e-01
0.000000e+00
0.000000e+00
0.000000e+00
0.000000e+00
0.000000e+00
6.282830e-02
6.723100e-02
7.265700e-02
7.910640e-02
8.657920e-02
1.143320e-01
1.220540e-01
1.314590e-01
1.425490e-01
1.553220e-01
1.545100e-01
1.644680e-01
1.764070e-01
1.903260e-01
2.062270e-01
1.833640e-01
1.944740e-01
2.074990e-01
2.224400e-01
2.392960e-01
0.000000e+00
0.000000e+00
0.000000e+00
0.000000e+00
0.000000e+00
8.657920e-02
9.387130e-02
1.030620e-01
1.141500e-01
1.271370e-01
1.553220e-01
1.677910e-01
1.833250e-01
2.019210e-01
2.235820e-01
2.062270e-01
2.217600e-01
2.407890e-01
2.633140e-01
2.893350e-01
2.392960e-01
2.557770e-01
2.754540e-01
2.983270e-01
3.243970e-01
0.000000e+00
0.000000e+00
0.000000e+00
0.000000e+00
0.000000e+00
1.271370e-01
1.393990e-01
1.544730e-01
1.723600e-01
1.930590e-01
2.235820e-01
2.441400e-01
2.691170e-01
2.985120e-01
3.323260e-01
2.893350e-01
3.142240e-01
3.439310e-01
3.784580e-01
4.178030e-01
3.243970e-01
3.496500e-01
3.789160e-01
4.121960e-01
4.494890e-01
0.000000e+00
0.000000e+00
0.000000e+00
0.000000e+00
0.000000e+00
1.930590e-01
2.149680e-01
2.383110e-01
2.630870e-01
2.892960e-01
3.323260e-01
3.684650e-01
4.068440e-01
4.474630e-01
4.903240e-01
4.178030e-01
4.604890e-01
5.055980e-01
5.531290e-01
6.030830e-01
4.494890e-01
4.910420e-01
5.345740e-01
5.800840e-01
6.275730e-01
0.000000e+00
0.000000e+00
0.000000e+00
0.000000e+00
0.000000e+00
2.892960e-01
3.231200e-01
3.532970e-01
3.798290e-01
4.027160e-01
4.903240e-01
5.458660e-01
5.961580e-01
6.411980e-01
6.809870e-01
6.030830e-01
6.682400e-01
7.285810e-01
7.841060e-01
8.348150e-01
6.275730e-01
6.902400e-01
7.505660e-01
8.085520e-01
8.641990e-01
0.000000e+00
0.000000e+00
0.000000e+00
0.000000e+00
0.000000e+00
4.027160e-01
4.323050e-01
4.530000e-01
4.648020e-01
4.677110e-01
6.809870e-01
7.321330e-01
7.702250e-01
7.952640e-01
8.072500e-01
8.348150e-01
8.994850e-01
9.516760e-01
9.913860e-01
1.018620e+00
8.641990e-01
9.343610e-01
9.973510e-01
1.053170e+00
1.101810e+00
0.000000e+00
0.000000e+00
0.000000e+00
0.000000e+00
0.000000e+00
4.677110e-01
4.529370e-01
4.298140e-01
3.983420e-01
3.585200e-01
8.072500e-01
7.924040e-01
7.637220e-01
7.212040e-01
6.648490e-01
1.018620e+00
1.018400e+00
1.001720e+00
9.685860e-01
9.189860e-01
1.101810e+00
1.130930e+00
1.143820e+00
1.140490e+00
1.120930e+00
0.000000e+00
0.000000e+00
0.000000e+00
0.000000e+00
0.000000e+00
3.585200e-01
3.008490e-01
2.459530e-01
1.938320e-01
1.444860e-01
6.648490e-01
5.759440e-01
4.877020e-01
4.001210e-01
3.132030e-01
9.189860e-01
8.252850e-01
7.252450e-01
6.188680e-01
5.061520e-01
1.120930e+00
1.048870e+00
9.585830e-01
8.500700e-01
7.233330e-01
0.000000e+00
0.000000e+00
0.000000e+00
0.000000e+00
0.000000e+00
1.444860e-01
1.076570e-01
7.689320e-02
5.219380e-02
3.355900e-02
3.132030e-01
2.439400e-01
1.856850e-01
1.384360e-01
1.021950e-01
5.061520e-01
4.088500e-01
3.263750e-01
2.587270e-01
2.059080e-01
7.233330e-01
6.023850e-01
4.989630e-01
4.130670e-01
3.446980e-01
0.000000e+00
0.000000e+00
0.000000e+00
0.000000e+00
0.000000e+00
3.355900e-02
1.870090e-02
1.272960e-02
1.564510e-02
2.744740e-02
1.021950e-01
7.396850e-02
6.030030e-02
6.119030e-02
7.663840e-02
2.059080e-01
1.658030e-01
1.427120e-01
1.366360e-01
1.475730e-01
3.446980e-01
2.942040e-01
2.599650e-01
2.419810e-01
2.402510e-01
0.000000e+00
0.000000e+00
0.000000e+00
0.000000e+00
0.000000e+00
2.744740e-02
3.461820e-02
4.050450e-02
4.510630e-02
4.842360e-02
7.663840e-02
8.577150e-02
9.290320e-02
9.803360e-02
1.011630e-01
1.475730e-01
1.534600e-01
1.571960e-01
1.587820e-01
1.582170e-01
2.402510e-01
2.376830e-01
2.333830e-01
2.273510e-01
2.195880e-01
0.000000e+00
0.000000e+00
0.000000e+00
0.000000e+00
0.000000e+00
4.842360e-02
5.205170e-02
5.397320e-02
5.418810e-02
5.269630e-02
1.011630e-01
1.049900e-01
1.063050e-01
1.051080e-01
1.013980e-01
1.582170e-01
1.588140e-01
1.569950e-01
1.527580e-01
1.461050e-01
2.195880e-01
2.135260e-01
2.060430e-01
1.971410e-01
1.868180e-01
0.000000e+00
0.000000e+00
0.000000e+00
0.000000e+00
0.000000e+00
5.269630e-02
5.234300e-02
5.142160e-02
4.993210e-02
4.787450e-02
1.013980e-01
9.955930e-02
9.695340e-02
9.358010e-02
8.943960e-02
1.461050e-01
1.416490e-01
1.365950e-01
1.309440e-01
1.246950e-01
1.868180e-01
1.786120e-01
1.703470e-01
1.620240e-01
1.536420e-01
0.000000e+00
0.000000e+00
0.000000e+00
0.000000e+00
0.000000e+00
4.787450e-02
4.649730e-02
4.491760e-02
4.313560e-02
4.115110e-02
8.943960e-02
8.640880e-02
8.314970e-02
7.966250e-02
7.594710e-02
1.246950e-01
1.197340e-01
1.146960e-01
1.095810e-01
1.043880e-01
1.536420e-01
1.464740e-01
1.395570e-01
1.328900e-01
1.264740e-01
0.000000e+00
0.000000e+00
0.000000e+00
0.000000e+00
0.000000e+00
4.115110e-02
3.993370e-02
3.799010e-02
3.532020e-02
3.192390e-02
7.594710e-02
7.325910e-02
6.971400e-02
6.531160e-02
6.005210e-02
1.043880e-01
9.997620e-02
9.517160e-02
8.997430e-02
8.438450e-02
1.264740e-01
1.200850e-01
1.143630e-01
1.093080e-01
1.049210e-01
1.002660e-01
1.092490e-01
1.149900e-01
1.174880e-01
1.167440e-01
9.945850e-02
1.075350e-01
1.135960e-01
1.176410e-01
1.196700e-01
9.848610e-02
1.055080e-01
1.114520e-01
1.163200e-01
1.201100e-01
9.734850e-02
1.031670e-01
1.085590e-01
1.135260e-01
1.180650e-01
9.604590e-02
1.005130e-01
1.049170e-01
1.092580e-01
1.135350e-01
1.167440e-01
1.152230e-01
1.143110e-01
1.140080e-01
1.143150e-01
1.196700e-01
1.203960e-01
1.212190e-01
1.221410e-01
1.231600e-01
1.201100e-01
1.224690e-01
1.245850e-01
1.264570e-01
1.280870e-01
1.180650e-01
1.214420e-01
1.244060e-01
1.269580e-01
1.290980e-01
1.135350e-01
1.173140e-01
1.206830e-01
1.236420e-01
1.261900e-01
1.143150e-01
1.157060e-01
1.179700e-01
1.211070e-01
1.251160e-01
1.231600e-01
1.249120e-01
1.275060e-01
1.309410e-01
1.352180e-01
1.280870e-01
1.301850e-01
1.330540e-01
1.366940e-01
1.411050e-01
1.290980e-01
1.315260e-01
1.346150e-01
1.383650e-01
1.427760e-01
1.261900e-01
1.289340e-01
1.321890e-01
1.359540e-01
1.402310e-01
1.251160e-01
1.295160e-01
1.346790e-01
1.406040e-01
1.472920e-01
1.352180e-01
1.399560e-01
1.454410e-01
1.516720e-01
1.586500e-01
1.411050e-01
1.460110e-01
1.516380e-01
1.579860e-01
1.650550e-01
1.427760e-01
1.476810e-01
1.532710e-01
1.595450e-01
1.665050e-01
1.402310e-01
1.449660e-01
1.503390e-01
1.563500e-01
1.630010e-01
1.472920e-01
1.545770e-01
1.630170e-01
1.726120e-01
1.833640e-01
1.586500e-01
1.661590e-01
1.747970e-01
1.845640e-01
1.954610e-01
1.650550e-01
1.725990e-01
1.812280e-01
1.909410e-01
2.017380e-01
1.665050e-01
1.738960e-01
1.823090e-01
1.917420e-01
2.021960e-01
1.630010e-01
1.700500e-01
1.780390e-01
1.869670e-01
1.968350e-01
1.833640e-01
1.944740e-01
2.074990e-01
2.224400e-01
2.392960e-01
1.954610e-01
2.066400e-01
2.196790e-01
2.345780e-01
2.513370e-01
2.017380e-01
2.127670e-01
2.255780e-01
2.401730e-01
2.565520e-01
2.021960e-01
2.128540e-01
2.251980e-01
2.392270e-01
2.549420e-01
1.968350e-01
2.069030e-01
2.185380e-01
2.317390e-01
2.465060e-01
2.392960e-01
2.557770e-01
2.754540e-01
2.983270e-01
3.243970e-01
2.513370e-01
2.673930e-01
2.866970e-01
3.092510e-01
3.350540e-01
2.565520e-01
2.719850e-01
2.906870e-01
3.126580e-01
3.378970e-01
2.549420e-01
2.695560e-01
2.874240e-01
3.085470e-01
3.329240e-01
2.465060e-01
2.601030e-01
2.769080e-01
2.969190e-01
3.201380e-01
3.243970e-01
3.496500e-01
3.789160e-01
4.121960e-01
4.494890e-01
3.350540e-01
3.592460e-01
3.878390e-01
4.208330e-01
4.582270e-01
3.378970e-01
3.607610e-01
3.884020e-01
4.208190e-01
4.580110e-01
3.329240e-01
3.541940e-01
3.806030e-01
4.121520e-01
4.488410e-01
3.201380e-01
3.395450e-01
3.644440e-01
3.948350e-01
4.307170e-01
4.494890e-01
4.910420e-01
5.345740e-01
5.800840e-01
6.275730e-01
4.582270e-01
4.985560e-01
5.418620e-01
5.881440e-01
6.374010e-01
4.580110e-01
4.968310e-01
5.395070e-01
5.860400e-01
6.364280e-01
4.488410e-01
4.858660e-01
5.275090e-01
5.737730e-01
6.246550e-01
4.307170e-01
4.656600e-01
5.058690e-01
5.513420e-01
6.020810e-01
6.275730e-01
6.902400e-01
7.505660e-01
8.085520e-01
8.641990e-01
6.374010e-01
7.037860e-01
7.679870e-01
8.300020e-01
8.898320e-01
6.364280e-01
7.057180e-01
7.730580e-01
8.384490e-01
9.018920e-01
6.246550e-01
6.960330e-01
7.657800e-01
8.338960e-01
9.003800e-01
6.020810e-01
6.747340e-01
7.461530e-01
8.163400e-01
8.852940e-01
8.641990e-01
9.343610e-01
9.973510e-01
1.053170e+00
1.101810e+00
8.898320e-01
9.708170e-01
1.043650e+00
1.108320e+00
1.164830e+00
9.018920e-01
9.926600e-01
1.074310e+00
1.146840e+00
1.210260e+00
9.003800e-01
9.998890e-01
1.089340e+00
1.168740e+00
1.238090e+00
8.852940e-01
9.925040e-01
1.088750e+00
1.174020e+00
1.248330e+00
1.101810e+00
1.130930e+00
1.143820e+00
1.140490e+00
1.120930e+00
1.164830e+00
1.201900e+00
1.224680e+00
1.233170e+00
1.227350e+00
1.210260e+00
1.253580e+00
1.284270e+00
1.302320e+00
1.307730e+00
1.238090e+00
1.285970e+00
1.322590e+00
1.347960e+00
1.362070e+00
1.248330e+00
1.299060e+00
1.339640e+00
1.370070e+00
1.390360e+00
1.120930e+00
1.048870e+00
9.585830e-01
8.500700e-01
7.233330e-01
1.227350e+00
1.172390e+00
1.099560e+00
1.008870e+00
9.003250e-01
1.307730e+00
1.263460e+00
1.203250e+00
1.127110e+00
1.035040e+00
1.362070e+00
1.322080e+00
1.269660e+00
1.204800e+00
1.127490e+00
1.390360e+00
1.348260e+00
1.298780e+00
1.241920e+00
1.177670e+00
7.233330e-01
6.023850e-01
4.989630e-01
4.130670e-01
3.446980e-01
9.003250e-01
7.760660e-01
6.647650e-01
5.664230e-01
4.810400e-01
1.035040e+00
9.145900e-01
8.018300e-01
6.967670e-01
5.993990e-01
1.127490e+00
1.017960e+00
9.101580e-01
8.040980e-01
6.997770e-01
1.177670e+00
1.086170e+00
9.897490e-01
8.884180e-01
7.821730e-01
3.446980e-01
2.942040e-01
2.599650e-01
2.419810e-01
2.402510e-01
4.810400e-01
4.185380e-01
3.712120e-01
3.390610e-01
3.220860e-01
5.993990e-01
5.268450e-01
4.680010e-01
4.228680e-01
3.914450e-01
6.997770e-01
6.191230e-01
5.503310e-01
4.934000e-01
4.483300e-01
7.821730e-01
6.953740e-01
6.182030e-01
5.506580e-01
4.927400e-01
2.402510e-01
2.376830e-01
2.333830e-01
2.273510e-01
2.195880e-01
3.220860e-01
3.082910e-01
2.941250e-01
2.795860e-01
2.646760e-01
3.914450e-01
3.667010e-01
3.430270e-01
3.204240e-01
2.988910e-01
4.483300e-01
4.129130e-01
3.800910e-01
3.498640e-01
3.222320e-01
4.927400e-01
4.469260e-01
4.053150e-01
3.679060e-01
3.347000e-01
2.195880e-01
2.135260e-01
2.060430e-01
1.971410e-01
1.868180e-01
2.646760e-01
2.527950e-01
2.402940e-01
2.271730e-01
2.134310e-01
2.988910e-01
2.819790e-01
2.652390e-01
2.486700e-01
2.322710e-01
3.222320e-01
3.010780e-01
2.808780e-01
2.616320e-01
2.433410e-01
3.347000e-01
3.100920e-01
2.872120e-01
2.660600e-01
2.466380e-01
1.868180e-01
1.786120e-01
1.703470e-01
1.620240e-01
1.536420e-01
2.134310e-01
2.023630e-01
1.916280e-01
1.812280e-01
1.711610e-01
2.322710e-01
2.188940e-01
2.062140e-01
1.942310e-01
1.829460e-01
2.433410e-01
2.282060e-01
2.141040e-01
2.010340e-01
1.889970e-01
2.466380e-01
2.302990e-01
2.152990e-01
2.016370e-01
1.893130e-01
1.536420e-01
1.464740e-01
1.395570e-01
1.328900e-01
1.264740e-01
1.711610e-01
1.626080e-01
1.544610e-01
1.467200e-01
1.393850e-01
1.829460e-01
1.733960e-01
1.643900e-01
1.559260e-01
1.480060e-01
1.889970e-01
1.788390e-01
1.693430e-01
1.605100e-01
1.523380e-01
1.893130e-01
1.789370e-01
1.693220e-01
1.604700e-01
1.523800e-01
1.264740e-01
1.200850e-01
1.143630e-01
1.093080e-01
1.049210e-01
1.393850e-01
1.323390e-01
1.260760e-01
1.205940e-01
1.158940e-01
1.480060e-01
1.405470e-01
1.339430e-01
1.281920e-01
1.232960e-01
1.523380e-01
1.447080e-01
1.379630e-01
1.321020e-01
1.271260e-01
1.523800e-01
1.448230e-01
1.381380e-01
1.323250e-01
1.273840e-01
9.604590e-02
1.005130e-01
1.049170e-01
1.092580e-01
1.135350e-01
9.458900e-02
9.857250e-02
1.025320e-01
1.064690e-01
1.103820e-01
9.299440e-02
9.663920e-02
1.002520e-01
1.038320e-01
1.073790e-01
9.126190e-02
9.471340e-02
9.807500e-02
1.013470e-01
1.045280e-01
8.939170e-02
9.279510e-02
9.600250e-02
9.901390e-02
1.018290e-01
1.135350e-01
1.173140e-01
1.206830e-01
1.236420e-01
1.261900e-01
1.103820e-01
1.140240e-01
1.173940e-01
1.204940e-01
1.233220e-01
1.073790e-01
1.108310e-01
1.141370e-01
1.172980e-01
1.203130e-01
1.045280e-01
1.077360e-01
1.109110e-01
1.140540e-01
1.171640e-01
1.018290e-01
1.047390e-01
1.077170e-01
1.107610e-01
1.138730e-01
1.261900e-01
1.289340e-01
1.321890e-01
1.359540e-01
1.402310e-01
1.233220e-01
1.262860e-01
1.296730e-01
1.334830e-01
1.377160e-01
1.203130e-01
1.234330e-01
1.269010e-01
1.307170e-01
1.348810e-01
1.171640e-01
1.203750e-01
1.238720e-01
1.276550e-01
1.317250e-01
1.138730e-01
1.171110e-01
1.205860e-01
1.242990e-01
1.282500e-01
1.402310e-01
1.449660e-01
1.503390e-01
1.563500e-01
1.630010e-01
1.377160e-01
1.423430e-01
1.475720e-01
1.534040e-01
1.598390e-01
1.348810e-01
1.393800e-01
1.444420e-01
1.500680e-01
1.562580e-01
1.317250e-01
1.360760e-01
1.409490e-01
1.463420e-01
1.522570e-01
1.282500e-01
1.324330e-01
1.370910e-01
1.422270e-01
1.478380e-01
1.630010e-01
1.700500e-01
1.780390e-01
1.869670e-01
1.968350e-01
1.598390e-01
1.666300e-01
1.743070e-01
1.828720e-01
1.923230e-01
1.562580e-01
1.627540e-01
1.700810e-01
1.782380e-01
1.872260e-01
1.522570e-01
1.584250e-01
1.653610e-01
1.730670e-01
1.815420e-01
1.478380e-01
1.536410e-01
1.601470e-01
1.673580e-01
1.752730e-01
1.968350e-01
2.069030e-01
2.185380e-01
2.317390e-01
2.465060e-01
1.923230e-01
2.019240e-01
2.130110e-01
2.255870e-01
2.396500e-01
1.872260e-01
1.962880e-01
2.067540e-01
2.186230e-01
2.318960e-01
1.815420e-01
1.899980e-01
1.997660e-01
2.108480e-01
2.232440e-01
1.752730e-01
1.830510e-01
1.920480e-01
2.022620e-01
2.136940e-01
2.465060e-01
2.601030e-01
2.769080e-01
2.969190e-01
3.201380e-01
2.396500e-01
2.524530e-01
2.684070e-01
2.875140e-01
3.097720e-01
2.318960e-01
2.438020e-01
2.587620e-01
2.767760e-01
2.978440e-01
2.232440e-01
2.341510e-01
2.479720e-01
2.647070e-01
2.843550e-01
2.136940e-01
2.235000e-01
2.360370e-01
2.513050e-01
2.693040e-01
3.201380e-01
3.395450e-01
3.644440e-01
3.948350e-01
4.307170e-01
3.097720e-01
3.271330e-01
3.506170e-01
3.802250e-01
4.159560e-01
2.978440e-01
3.129510e-01
3.347460e-01
3.632300e-01
3.984020e-01
2.843550e-01
2.969990e-01
3.168310e-01
3.438490e-01
3.780550e-01
2.693040e-01
2.792790e-01
2.968720e-01
3.220840e-01
3.549140e-01
4.307170e-01
4.656600e-01
5.058690e-01
5.513420e-01
6.020810e-01
4.159560e-01
4.489530e-01
4.875040e-01
5.316110e-01
5.812720e-01
3.984020e-01
4.277740e-01
4.635510e-01
5.057340e-01
5.543220e-01
3.780550e-01
4.021240e-01
4.340100e-01
4.737120e-01
5.212320e-01
3.549140e-01
3.720030e-01
3.988800e-01
4.355460e-01
4.820000e-01
6.020810e-01
6.747340e-01
7.461530e-01
8.163400e-01
8.852940e-01
5.812720e-01
6.564070e-01
7.288140e-01
7.984940e-01
8.654460e-01
5.543220e-01
6.301920e-01
7.005960e-01
7.655370e-01
8.250130e-01
5.212320e-01
5.960870e-01
6.615000e-01
7.174690e-01
7.639950e-01
4.820000e-01
5.540940e-01
6.115240e-01
6.542890e-01
6.823900e-01
8.852940e-01
9.925040e-01
1.088750e+00
1.174020e+00
1.248330e+00
8.654460e-01
9.775980e-01
1.076690e+00
1.162740e+00
1.235730e+00
8.250130e-01
9.418250e-01
1.042820e+00
1.128010e+00
1.197380e+00
7.639950e-01
8.851870e-01
9.871360e-01
1.069840e+00
1.133300e+00
6.823900e-01
8.076830e-01
9.096300e-01
9.882310e-01
1.043490e+00
1.248330e+00
1.299060e+00
1.339640e+00
1.370070e+00
1.390360e+00
1.235730e+00
1.285730e+00
1.328410e+00
1.363760e+00
1.391770e+00
1.197380e+00
1.244860e+00
1.287240e+00
1.324520e+00
1.356700e+00
1.133300e+00
1.176430e+00
1.216110e+00
1.252350e+00
1.285160e+00
1.043490e+00
1.080440e+00
1.115040e+00
1.147260e+00
1.177130e+00
1.390360e+00
1.348260e+00
1.298780e+00
1.241920e+00
1.177670e+00
1.391770e+00
1.353240e+00
1.306810e+00
1.252500e+00
1.190300e+00
1.356700e+00
1.318980e+00
1.275990e+00
1.227740e+00
1.174220e+00
1.285160e+00
1.245500e+00
1.206320e+00
1.167630e+00
1.129410e+00
1.177130e+00
1.132780e+00
1.097800e+00
1.072170e+00
1.055900e+00
1.177670e+00
1.086170e+00
9.897490e-01
8.884180e-01
7.821730e-01
1.190300e+00
1.102640e+00
1.010790e+00
9.147440e-01
8.145000e-01
1.174220e+00
1.091420e+00
1.004670e+00
9.139450e-01
8.192580e-01
1.129410e+00
1.052510e+00
9.713740e-01
8.860210e-01
7.964460e-01
1.055900e+00
9.858890e-01
9.109140e-01
8.309720e-01
7.460630e-01
7.821730e-01
6.953740e-01
6.182030e-01
5.506580e-01
4.927400e-01
8.145000e-01
7.333330e-01
6.569580e-01
5.853770e-01
5.185890e-01
8.192580e-01
7.469430e-01
6.746930e-01
6.025090e-01
5.303910e-01
7.964460e-01
7.362040e-01
6.714070e-01
6.020540e-01
5.281460e-01
7.460630e-01
7.011180e-01
6.471010e-01
5.840130e-01
5.118530e-01
4.927400e-01
4.469260e-01
4.053150e-01
3.679060e-01
3.347000e-01
5.185890e-01
4.652210e-01
4.172850e-01
3.747790e-01
3.377050e-01
5.303910e-01
4.724340e-01
4.206810e-01
3.751310e-01
3.357860e-01
5.281460e-01
4.685640e-01
4.155030e-01
3.689620e-01
3.289410e-01
5.118530e-01
4.536120e-01
4.017510e-01
3.562710e-01
3.171720e-01
3.347000e-01
3.100920e-01
2.872120e-01
2.660600e-01
2.466380e-01
3.377050e-01
3.110860e-01
2.868160e-01
2.648980e-01
2.453300e-01
3.357860e-01
3.082760e-01
2.834990e-01
2.614530e-01
2.421390e-01
3.289410e-01
3.016640e-01
2.772580e-01
2.557250e-01
2.370640e-01
3.171720e-01
2.912480e-01
2.680950e-01
2.477150e-01
2.301060e-01
2.466380e-01
2.302990e-01
2.152990e-01
2.016370e-01
1.893130e-01
2.453300e-01
2.285270e-01
2.132450e-01
1.994840e-01
1.872440e-01
2.421390e-01
2.251870e-01
2.098880e-01
1.962430e-01
1.842510e-01
2.370640e-01
2.202790e-01
2.052290e-01
1.919130e-01
1.803320e-01
2.301060e-01
2.138040e-01
1.992670e-01
1.864950e-01
1.754880e-01
1.893130e-01
1.789370e-01
1.693220e-01
1.604700e-01
1.523800e-01
1.872440e-01
1.770200e-01
1.675740e-01
1.589060e-01
1.510170e-01
1.842510e-01
1.742970e-01
1.651150e-01
1.567060e-01
1.490690e-01
1.803320e-01
1.707680e-01
1.619470e-01
1.538700e-01
1.465350e-01
1.754880e-01
1.664340e-01
1.580700e-01
1.503970e-01
1.434140e-01
1.523800e-01
1.448230e-01
1.381380e-01
1.323250e-01
1.273840e-01
1.510170e-01
1.436100e-01
1.370900e-01
1.314560e-01
1.267100e-01
1.490690e-01
1.418460e-01
1.355220e-01
1.300960e-01
1.255680e-01
1.465350e-01
1.395320e-01
1.334340e-01
1.282430e-01
1.239580e-01
1.434140e-01
1.366660e-01
1.308280e-01
1.258990e-01
1.218800e-01
8.939170e-02
9.279510e-02
9.600250e-02
9.901390e-02
1.018290e-01
8.740010e-02
9.058580e-02
9.359600e-02
9.643050e-02
9.908950e-02
8.530680e-02
8.826940e-02
9.108380e-02
9.375000e-02
9.626790e-02
8.311190e-02
8.584600e-02
8.846620e-02
9.097230e-02
9.336440e-02
8.081530e-02
8.331560e-02
8.574290e-02
8.809730e-02
9.037880e-02
1.018290e-01
1.047390e-01
1.077170e-01
1.107610e-01
1.138730e-01
9.908950e-02
1.018020e-01
1.046310e-01