<?xml version="1.0"?>
<VTKFile type="UnstructuredGrid" version="0.1" byte_order="LittleEndian" compressor="vtkZLibDataCompressor">
<UnstructuredGrid>
<Piece NumberOfPoints="10000" NumberOfCells="6400">
<Points>
<DataArray type="Float32" NumberOfComponents="3" format="ascii">
-3.360000e+00 0.000000e+00 0.000000e+00
-3.276000e+00 0.000000e+00 0.000000e+00
-3.192000e+00 0.000000e+00 0.000000e+00
-3.108000e+00 0.000000e+00 0.000000e+00
-3.024000e+00 0.000000e+00 0.000000e+00
-3.360000e+00 6.412500e-02 0.000000e+00
-3.276000e+00 6.412500e-02 0.000000e+00
-3.192000e+00 6.412500e-02 0.000000e+00
-3.108000e+00 6.412500e-02 0.000000e+00
-3.024000e+00 6.412500e-02 0.000000e+00
-3.360000e+00 1.282500e-01 0.000000e+00
-3.276000e+00 1.282500e-01 0.000000e+00
-3.192000e+00 1.282500e-01 0.000000e+00
-3.108000e+00 1.282500e-01 0.000000e+00
-3.024000e+00 1.282500e-01 0.000000e+00
-3.360000e+00 1.923750e-01 0.000000e+00
-3.276000e+00 1.923750e-01 0.000000e+00
-3.192000e+00 1.923750e-01 0.000000e+00
-3.108000e+00 1.923750e-01 0.000000e+00
-3.024000e+00 1.923750e-01 0.000000e+00
-3.360000e+00 2.565000e-01 0.000000e+00
-3.276000e+00 2.565000e-01 0.000000e+00
-3.192000e+00 2.565000e-01 0.000000e+00
-3.108000e+00 2.565000e-01 0.000000e+00
-3.024000e+00 2.565000e-01 0.000000e+00
-3.024000e+00 0.000000e+00 0.000000e+00
-2.940000e+00 0.000000e+00 0.000000e+00
-2.856000e+00 0.000000e+00 0.000000e+00
-2.772000e+00 0.000000e+00 0.000000e+00
-2.688000e+00 0.000000e+00 0.000000e+00
-3.024000e+00 6.412500e-02 0.000000e+00
-2.940000e+00 6.412500e-02 0.000000e+00
-2.856000e+00 6.412500e-02 0.000000e+00
-2.772000e+00 6.412500e-02 0.000000e+00
-2.688000e+00 6.412500e-02 0.000000e+00
-3.024000e+00 1.282500e-01 0.000000e+00
-2.940000e+00 1.282500e-01 0.000000e+00
-2.856000e+00 1.282500e-01 0.000000e+00
-2.772000e+00 1.282500e-01 0.000000e+00
-2.688000e+00 1.282500e-01 0.000000e+00
-3.024000e+00 1.923750e-01 0.000000e+00
-2.940000e+00 1.923750e-01 0.000000e+00
-2.856000e+00 1.923750e-01 0.000000e+00
-2.772000e+00 1.923750e-01 0.000000e+00
-2.688000e+00 1.923750e-01 0.000000e+00
-3.024000e+00 2.565000e-01 0.000000e+00
-2.940000e+00 2.565000e-01 0.000000e+00
-2.856000e+00 2.565000e-01 0.000000e+00
-2.772000e+00 2.565000e-01 0.000000e+00
-2.688000e+00 2.565000e-01 0.000000e+00
-2.688000e+00 0.000000e+00 0.000000e+00
-2.604000e+00 0.000000e+00 0.000000e+00
-2.520000e+00 0.000000e+00 0.000000e+00
-2.436000e+00 0.000000e+00 0.000000e+00
-2.352000e+00 0.000000e+00 0.000000e+00
-2.688000e+00 6.412500e-02 0.000000e+00
-2.604000e+00 6.412500e-02 0.000000e+00
-2.520000e+00 6.412500e-02 0.000000e+00
-2.436000e+00 6.412500e-02 0.000000e+00
-2.352000e+00 6.412500e-02 0.000000e+00
-2.688000e+00 1.282500e-01 0.000000e+00
-2.604000e+00 1.282500e-01 0.000000e+00
-2.520000e+00 1.282500e-01 0.000000e+00
-2.436000e+00 1.282500e-01 0.000000e+00
-2.352000e+00 1.282500e-01 0.000000e+00
-2.688000e+00 1.923750e-01 0.000000e+00
-2.604000e+00 1.923750e-01 0.000000e+00
-2.520000e+00 1.923750e-01 0.000000e+00
-2.436000e+00 1.923750e-01 0.000000e+00
-2.352000e+00 1.923750e-01 0.000000e+00
-2.688000e+00 2.565000e-01 0.000000e+00
-2.604000e+00 2.565000e-01 0.000000e+00
-2.520000e+00 2.565000e-01 0.000000e+00
-2.436000e+00 2.565000e-01 0.000000e+00
-2.352000e+00 2.565000e-01 0.000000e+00
-2.352000e+00 0.000000e+00 0.000000e+00
-2.268000e+00 0.000000e+00 0.000000e+00
-2.184000e+00 0.000000e+00 0.000000e+00
-2.100000e+00 0.000000e+00 0.000000e+00
-2.016000e+00 0.000000e+00 0.000000e+00
-2.352000e+00 6.412500e-02 0.000000e+00
-2.268000e+00 6.412500e-02 0.000000e+00
-2.184000e+00 6.412500e-02 0.000000e+00
-2.100000e+00 6.412500e-02 0.000000e+00
-2.016000e+00 6.412500e-02 0.000000e+00
-2.352000e+00 1.282500e-01 0.000000e+00
-2.268000e+00 1.282500e-01 0.000000e+00
-2.184000e+00 1.282500e-01 0.000000e+00
-2.100000e+00 1.282500e-01 0.000000e+00
-2.016000e+00 1.282500e-01 0.000000e+00
-2.352000e+00 1.923750e-01 0.000000e+00
-2.268000e+00 1.923750e-01 0.000000e+00
-2.184000e+00 1.923750e-01 0.000000e+00
-2.100000e+00 1.923750e-01 0.000000e+00
-2.016000e+00 1.923750e-01 0.000000e+00
-2.352000e+00 2.565000e-01 0.000000e+00
-2.268000e+00 2.565000e-01 0.000000e+00
-2.184000e+00 2.565000e-01 0.000000e+00
-2.100000e+00 2.565000e-01 0.000000e+00
-2.016000e+00 2.565000e-01 0.000000e+00
-2.016000e+00 0.000000e+00 0.000000e+00
-1.932000e+00 0.000000e+00 0.000000e+00
-1.848000e+00 0.000000e+00 0.000000e+00
-1.764000e+00 0.000000e+00 0.000000e+00
-1.680000e+00 0.000000e+00 0.000000e+00
-2.016000e+00 6.412500e-02 0.000000e+00
-1.932000e+00 6.412500e-02 0.000000e+00
-1.848000e+00 6.412500e-02 0.000000e+00
-1.764000e+00 6.412500e-02 0.000000e+00
-1.680000e+00 6.412500e-02 0.000000e+00
-2.016000e+00 1.282500e-01 0.000000e+00
-1.932000e+00 1.282500e-01 0.000000e+00
-1.848000e+00 1.282500e-01 0.000000e+00
-1.764000e+00 1.282500e-01 0.000000e+00
-1.680000e+00 1.282500e-01 0.000000e+00
-2.016000e+00 1.923750e-01 0.000000e+00
-1.932000e+00 1.923750e-01 0.000000e+00
-1.848000e+00 1.923750e-01 0.000000e+00
-1.764000e+00 1.923750e-01 0.000000e+00
-1.680000e+00 1.923750e-01 0.000000e+00
-2.016000e+00 2.565000e-01 0.000000e+00
-1.932000e+00 2.565000e-01 0.000000e+00
-1.848000e+00 2.565000e-01 0.000000e+00
-1.764000e+00 2.565000e-01 0.000000e+00
-1.680000e+00 2.565000e-01 0.000000e+00
-1.680000e+00 0.000000e+00 0.000000e+00
-1.596000e+00 0.000000e+00 0.000000e+00
-1.512000e+00 0.000000e+00 0.000000e+00
-1.428000e+00 0.000000e+00 0.000000e+00
-1.344000e+00 0.000000e+00 0.000000e+00
-1.680000e+00 6.412500e-02 0.000000e+00
-1.596000e+00 6.412500e-02 0.000000e+00
-1.512000e+00 6.412500e-02 0.000000e+00
-1.428000e+00 6.412500e-02 0.000000e+00
-1.344000e+00 6.412500e-02 0.000000e+00
-1.680000e+00 1.282500e-01 0.000000e+00
-1.596000e+00 1.282500e-01 0.000000e+00
-1.512000e+00 1.282500e-01 0.000000e+00
-1.428000e+00 1.282500e-01 0.000000e+00
-1.344000e+00 1.282500e-01 0.000000e+00
-1.680000e+00 1.923750e-01 0.000000e+00
-1.596000e+00 1.923750e-01 0.000000e+00
-1.512000e+00 1.923750e-01 0.000000e+00
-1.428000e+00 1.923750e-01 0.000000e+00
-1.344000e+00 1.923750e-01 0.000000e+00
-1.680000e+00 2.565000e-01 0.000000e+00
-1.596000e+00 2.565000e-01 0.000000e+00
-1.512000e+00 2.565000e-01 0.000000e+00
-1.428000e+00 2.565000e-01 0.000000e+00
-1.344000e+00 2.565000e-01 0.000000e+00
-1.344000e+00 0.000000e+00 0.000000e+00
-1.260000e+00 0.000000e+00 0.000000e+00
-1.176000e+00 0.000000e+00 0.000000e+00
-1.092000e+00 0.000000e+00 0.000000e+00
-1.008000e+00 0.000000e+00 0.000000e+00
-1.344000e+00 6.412500e-02 0.000000e+00
-1.260000e+00 6.412500e-02 0.000000e+00
-1.176000e+00 6.412500e-02 0.000000e+00
-1.092000e+00 6.412500e-02 0.000000e+00
-1.008000e+00 6.412500e-02 0.000000e+00
-1.344000e+00 1.282500e-01 0.000000e+00
-1.260000e+00 1.282500e-01 0.000000e+00
-1.176000e+00 1.282500e-01 0.000000e+00
-1.092000e+00 1.282500e-01 0.000000e+00
-1.008000e+00 1.282500e-01 0.000000e+00
-1.344000e+00 1.923750e-01 0.000000e+00
-1.260000e+00 1.923750e-01 0.000000e+00
-1.176000e+00 1.923750e-01 0.000000e+00
-1.092000e+00 1.923750e-01 0.000000e+00
-1.008000e+00 1.923750e-01 0.000000e+00
-1.344000e+00 2.565000e-01 0.000000e+00
-1.260000e+00 2.565000e-01 0.000000e+00
-1.176000e+00 2.565000e-01 0.000000e+00
-1.092000e+00 2.565000e-01 0.000000e+00
-1.008000e+00 2.565000e-01 0.000000e+00
-1.008000e+00 0.000000e+00 0.000000e+00
-9.240000e-01 0.000000e+00 0.000000e+00
-8.400000e-01 0.000000e+00 0.000000e+00
-7.560000e-01 0.000000e+00 0.000000e+00
-6.720000e-01 0.000000e+00 0.000000e+00
-1.008000e+00 6.412500e-02 0.000000e+00
-9.240000e-01 6.412500e-02 0.000000e+00
-8.400000e-01 6.412500e-02 0.000000e+00
-7.560000e-01 6.412500e-02 0.000000e+00
-6.720000e-01 6.412500e-02 0.000000e+00
-1.008000e+00 1.282500e-01 0.000000e+00
-9.240000e-01 1.282500e-01 0.000000e+00
-8.400000e-01 1.282500e-01 0.000000e+00
-7.560000e-01 1.282500e-01 0.000000e+00
-6.720000e-01 1.282500e-01 0.000000e+00
-1.008000e+00 1.923750e-01 0.000000e+00
-9.240000e-01 1.923750e-01 0.000000e+00
-8.400000e-01 1.923750e-01 0.000000e+00
-7.560000e-01 1.923750e-01 0.000000e+00
-6.720000e-01 1.923750e-01 0.000000e+00
-1.008000e+00 2.565000e-01 0.000000e+00
-9.240000e-01 2.565000e-01 0.000000e+00
-8.400000e-01 2.565000e-01 0.000000e+00
-7.560000e-01 2.565000e-01 0.000000e+00
-6.720000e-01 2.565000e-01 0.000000e+00
-6.720000e-01 0.000000e+00 0.000000e+00
-5.880000e-01 0.000000e+00 0.000000e+00
-5.040000e-01 0.000000e+00 0.000000e+00
-4.200000e-01 0.000000e+00 0.000000e+00
-3.360000e-01 0.000000e+00 0.000000e+00
-6.720000e-01 6.412500e-02 0.000000e+00
-5.880000e-01 6.412500e-02 0.000000e+00
-5.040000e-01 6.412500e-02 0.000000e+00
-4.200000e-01 6.412500e-02 0.000000e+00
-3.360000e-01 6.412500e-02 0.000000e+00
-6.720000e-01 1.282500e-01 0.000000e+00
-5.880000e-01 1.282500e-01 0.000000e+00
-5.040000e-01 1.282500e-01 0.000000e+00
-4.200000e-01 1.282500e-01 0.000000e+00
-3.360000e-01 1.282500e-01 0.000000e+00
-6.720000e-01 1.923750e-01 0.000000e+00
-5.880000e-01 1.923750e-01 0.000000e+00
-5.040000e-01 1.923750e-01 0.000000e+00
-4.200000e-01 1.923750e-01 0.000000e+00
-3.360000e-01 1.923750e-01 0.000000e+00
-6.720000e-01 2.565000e-01 0.000000e+00
-5.880000e-01 2.565000e-01 0.000000e+00
-5.040000e-01 2.565000e-01 0.000000e+00
-4.200000e-01 2.565000e-01 0.000000e+00
-3.360000e-01 2.565000e-01 0.000000e+00
-3.360000e-01 0.000000e+00 0.000000e+00
-2.520000e-01 0.000000e+00 0.000000e+00
-1.680000e-01 0.000000e+00 0.000000e+00
-8.400000e-02 0.000000e+00 0.000000e+00
-4.440890e-16 0.000000e+00 0.000000e+00
-3.360000e-01 6.412500e-02 0.000000e+00
-2.520000e-01 6.412500e-02 0.000000e+00
-1.680000e-01 6.412500e-02 0.000000e+00
-8.400000e-02 6.412500e-02 0.000000e+00
-4.440890e-16 6.412500e-02 0.000000e+00
-3.360000e-01 1.282500e-01 0.000000e+00
-2.520000e-01 1.282500e-01 0.000000e+00
-1.680000e-01 1.282500e-01 0.000000e+00
-8.400000e-02 1.282500e-01 0.000000e+00
-4.440890e-16 1.282500e-01 0.000000e+00
-3.360000e-01 1.923750e-01 0.000000e+00
-2.520000e-01 1.923750e-01 0.000000e+00
-1.680000e-01 1.923750e-01 0.000000e+00
[...]
<PointData>
<DataArray type="Float32" Name="V1" format="ascii">
0.000000e+00
0.000000e+00
0.000000e+00
0.000000e+00
0.000000e+00
6.347820e-02
5.961560e-02
5.562470e-02
5.150530e-02
4.725740e-02
1.013490e-01
9.769620e-02
9.334250e-02
8.828740e-02
8.253090e-02
1.136110e-01
1.142420e-01
1.131530e-01
1.103460e-01
1.058210e-01
1.002660e-01
1.092520e-01
1.150580e-01
1.176820e-01
1.171260e-01
0.000000e+00
0.000000e+00
0.000000e+00
0.000000e+00
0.000000e+00
4.725740e-02
4.299810e-02
4.030660e-02
3.918290e-02
3.962710e-02
8.253090e-02
7.664370e-02
7.295150e-02
7.145430e-02
7.215210e-02
1.058210e-01
1.009370e-01
9.793460e-02
9.681400e-02
9.757490e-02
1.171260e-01
1.158770e-01
1.152560e-01
1.152620e-01
1.158960e-01
0.000000e+00
0.000000e+00
0.000000e+00
0.000000e+00
0.000000e+00
3.962710e-02
4.017360e-02
4.093410e-02
4.190860e-02
4.309690e-02
7.215210e-02
7.316280e-02
7.460300e-02
7.647280e-02
7.877210e-02
9.757490e-02
9.896740e-02
1.010070e-01
1.036930e-01
1.070250e-01
1.158960e-01
1.175870e-01
1.201450e-01
1.235680e-01
1.278570e-01
0.000000e+00
0.000000e+00
0.000000e+00
0.000000e+00
0.000000e+00
4.309690e-02
4.440900e-02
4.615610e-02
4.833820e-02
5.095530e-02
7.877210e-02
8.130120e-02
8.454110e-02
8.849180e-02
9.315320e-02
1.070250e-01
1.106770e-01
1.151550e-01
1.204610e-01
1.265940e-01
1.278570e-01
1.325350e-01
1.379980e-01
1.442450e-01
1.512770e-01
0.000000e+00
0.000000e+00
0.000000e+00
0.000000e+00
0.000000e+00
5.095530e-02
5.380600e-02
5.720480e-02
6.115180e-02
6.564680e-02
9.315320e-02
9.822370e-02
1.042260e-01
1.111600e-01
1.190260e-01
1.265940e-01
1.332530e-01
1.410630e-01
1.500240e-01
1.601360e-01
1.512770e-01
1.588940e-01
1.677170e-01
1.777450e-01
1.889790e-01
0.000000e+00
0.000000e+00
0.000000e+00
0.000000e+00
0.000000e+00
6.564680e-02
7.028030e-02
7.600290e-02
8.281470e-02
9.071560e-02
1.190260e-01
1.271250e-01
1.370130e-01
1.486900e-01
1.621550e-01
1.601360e-01
1.705340e-01
1.830300e-01
1.976250e-01
2.143180e-01
1.889790e-01
2.005080e-01
2.140550e-01
2.296210e-01
2.472050e-01
0.000000e+00
0.000000e+00
0.000000e+00
0.000000e+00
0.000000e+00
9.071560e-02
9.836590e-02
1.080220e-01
1.196850e-01
1.333540e-01
1.621550e-01
1.752030e-01
1.914810e-01
2.109890e-01
2.337280e-01
2.143180e-01
2.305100e-01
2.503750e-01
2.739120e-01
3.011220e-01
2.472050e-01
2.642890e-01
2.847050e-01
3.084540e-01
3.355350e-01
0.000000e+00
0.000000e+00
0.000000e+00
0.000000e+00
0.000000e+00
1.333540e-01
1.462770e-01
1.620750e-01
1.807470e-01
2.022940e-01
2.337280e-01
2.553430e-01
2.814660e-01
3.120970e-01
3.472370e-01
3.011220e-01
3.271970e-01
3.581730e-01
3.940500e-01
4.348280e-01
3.355350e-01
3.618400e-01
3.921970e-01
4.266070e-01
4.650690e-01
0.000000e+00
0.000000e+00
0.000000e+00
0.000000e+00
0.000000e+00
2.022940e-01
2.254190e-01
2.497600e-01
2.753170e-01
3.020890e-01
3.472370e-01
3.853120e-01
4.252990e-01
4.671960e-01
5.110030e-01
4.348280e-01
4.796790e-01
5.266150e-01
5.756360e-01
6.267420e-01
4.650690e-01
5.085190e-01
5.537080e-01
6.006370e-01
6.493050e-01
0.000000e+00
0.000000e+00
0.000000e+00
0.000000e+00
0.000000e+00
3.020890e-01
3.371730e-01
3.680980e-01
3.948660e-01
4.174750e-01
5.110030e-01
5.686020e-01
6.202120e-01
6.658340e-01
7.054670e-01
6.267420e-01
6.942880e-01
7.563420e-01
8.129050e-01
8.639770e-01
6.493050e-01
7.142290e-01
7.764870e-01
8.360790e-01
8.930040e-01
0.000000e+00
0.000000e+00
0.000000e+00
0.000000e+00
0.000000e+00
4.174750e-01
4.460220e-01
4.653050e-01
4.753230e-01
4.760770e-01
7.054670e-01
7.552910e-01
7.915010e-01
8.140970e-01
8.230800e-01
8.639770e-01
9.278070e-01
9.785890e-01
1.016320e+00
1.041010e+00
8.930040e-01
9.635700e-01
1.026570e+00
1.082000e+00
1.129870e+00
0.000000e+00
0.000000e+00
0.000000e+00
0.000000e+00
0.000000e+00
4.760770e-01
4.568530e-01
4.294970e-01
3.940070e-01
3.503850e-01
8.230800e-01
8.015300e-01
7.662520e-01
7.172470e-01
6.545150e-01
1.041010e+00
1.034030e+00
1.010270e+00
9.697200e-01
9.123880e-01
1.129870e+00
1.154350e+00
1.161540e+00
1.151420e+00
1.124010e+00
0.000000e+00
0.000000e+00
0.000000e+00
0.000000e+00
0.000000e+00
3.503850e-01
2.919710e-01
2.369400e-01
1.852930e-01
1.370290e-01
6.545150e-01
5.632720e-01
4.738840e-01
3.863530e-01
3.006770e-01
9.123880e-01
8.139020e-01
7.108320e-01
6.031780e-01
4.909420e-01
1.124010e+00
1.043860e+00
9.477820e-01
8.357710e-01
7.078250e-01
0.000000e+00
0.000000e+00
0.000000e+00
0.000000e+00
0.000000e+00
1.370290e-01
1.008510e-01
7.207390e-02
5.069710e-02
3.672100e-02
3.006770e-01
2.328260e-01
1.781030e-01
1.365080e-01
1.080410e-01
4.909420e-01
3.959230e-01
3.180860e-01
2.574310e-01
2.139590e-01
7.078250e-01
5.901430e-01
4.920240e-01
4.134680e-01
3.544750e-01
0.000000e+00
0.000000e+00
0.000000e+00
0.000000e+00
0.000000e+00
3.672100e-02
2.479220e-02
2.074790e-02
2.458820e-02
3.631310e-02
1.080410e-01
8.452740e-02
7.388030e-02
7.609910e-02
9.118380e-02
2.139590e-01
1.792060e-01
1.593970e-01
1.545320e-01
1.646120e-01
3.544750e-01
3.088270e-01
2.772980e-01
2.598880e-01
2.565980e-01
0.000000e+00
0.000000e+00
0.000000e+00
0.000000e+00
0.000000e+00
3.631310e-02
4.384280e-02
4.939620e-02
5.297350e-02
5.457470e-02
9.118380e-02
1.007900e-01
1.072980e-01
1.107070e-01
1.110190e-01
1.646120e-01
1.708410e-01
1.737040e-01
1.732020e-01
1.693340e-01
2.565980e-01
2.539960e-01
2.486160e-01
2.404570e-01
2.295190e-01
0.000000e+00
0.000000e+00
0.000000e+00
0.000000e+00
0.000000e+00
5.457470e-02
5.716400e-02
5.822230e-02
5.774940e-02
5.574540e-02
1.110190e-01
1.130620e-01
1.129260e-01
1.106120e-01
1.061180e-01
1.693340e-01
1.676950e-01
1.641120e-01
1.585870e-01
1.511180e-01
2.295190e-01
2.210610e-01
2.117800e-01
2.016750e-01
1.907460e-01
0.000000e+00
0.000000e+00
0.000000e+00
0.000000e+00
0.000000e+00
5.574540e-02
5.486210e-02
5.352390e-02
5.173060e-02
4.948240e-02
1.061180e-01
1.034460e-01
1.001810e-01
9.632340e-02
9.187330e-02
1.511180e-01
1.457510e-01
1.399710e-01
1.337780e-01
1.271730e-01
1.907460e-01
1.817780e-01
1.728950e-01
1.640950e-01
1.553800e-01
0.000000e+00
0.000000e+00
0.000000e+00
0.000000e+00
0.000000e+00
4.948240e-02
4.788350e-02
4.612400e-02
4.420390e-02
4.212320e-02
9.187330e-02
8.849330e-02
8.495160e-02
8.124810e-02
7.738290e-02
1.271730e-01
1.218290e-01
1.164830e-01
1.111330e-01
1.057790e-01
1.553800e-01
1.478920e-01
1.407170e-01
1.338570e-01
1.273120e-01
0.000000e+00
0.000000e+00
0.000000e+00
0.000000e+00
0.000000e+00
4.212320e-02
4.079990e-02
3.877920e-02
3.606110e-02
3.264560e-02
7.738290e-02
7.453090e-02
7.086650e-02
6.638970e-02
6.110040e-02
1.057790e-01
1.011930e-01
9.626190e-02
9.098570e-02
8.536430e-02
1.273120e-01
1.207860e-01
1.149660e-01
1.098490e-01
1.054370e-01
1.002660e-01
1.092520e-01
1.150580e-01
1.176820e-01
1.171260e-01
9.945850e-02
1.075210e-01
1.136110e-01
1.177290e-01
1.198750e-01
9.848610e-02
1.054830e-01
1.114320e-01
1.163320e-01
1.201850e-01
9.734850e-02
1.031390e-01
1.085210e-01
1.134930e-01
1.180570e-01
9.604590e-02
1.004890e-01
1.048780e-01
1.092110e-01
1.134900e-01
1.171260e-01
1.158770e-01
1.152560e-01
1.152620e-01
1.158960e-01
1.198750e-01
1.207980e-01
1.218510e-01
1.230340e-01
1.243450e-01
1.201850e-01
1.226790e-01
1.249700e-01
1.270580e-01
1.289440e-01
1.180570e-01
1.215180e-01
1.246110e-01
1.273360e-01
1.296910e-01
1.134900e-01
1.173180e-01
1.207760e-01
1.238660e-01
1.265880e-01
1.158960e-01
1.175870e-01
1.201450e-01
1.235680e-01
1.278570e-01
1.243450e-01
1.263780e-01
1.292490e-01
1.329570e-01
1.375030e-01
1.289440e-01
1.312980e-01
1.344220e-01
1.383180e-01
1.429850e-01
1.296910e-01
1.323460e-01
1.356670e-01
1.396520e-01
1.443030e-01
1.265880e-01
1.295240e-01
1.329810e-01
1.369580e-01
1.414570e-01
1.278570e-01
1.325350e-01
1.379980e-01
1.442450e-01
1.512770e-01
1.375030e-01
1.425060e-01
1.482750e-01
1.548110e-01
1.621130e-01
1.429850e-01
1.481410e-01
1.540370e-01
1.606710e-01
1.680450e-01
1.443030e-01
1.494420e-01
1.552830e-01
1.618260e-01
1.690720e-01
1.414570e-01
1.464070e-01
1.520130e-01
1.582750e-01
1.651930e-01
1.512770e-01
1.588940e-01
1.677170e-01
1.777450e-01
1.889790e-01
1.621130e-01
1.699330e-01
1.789290e-01
1.891010e-01
2.004480e-01
1.680450e-01
1.758810e-01
1.848450e-01
1.949370e-01
2.061580e-01
1.690720e-01
1.767380e-01
1.854650e-01
1.952550e-01
2.061060e-01
1.651930e-01
1.725030e-01
1.807900e-01
1.900530e-01
2.002940e-01
1.889790e-01
2.005080e-01
2.140550e-01
2.296210e-01
2.472050e-01
2.004480e-01
2.120100e-01
2.255360e-01
2.410260e-01
2.584800e-01
2.061580e-01
2.175410e-01
2.308110e-01
2.459670e-01
2.630090e-01
2.061060e-01
2.171010e-01
2.298800e-01
2.444430e-01
2.607910e-01
2.002940e-01
2.106880e-01
2.227420e-01
2.364540e-01
2.518250e-01
2.472050e-01
2.642890e-01
2.847050e-01
3.084540e-01
3.355350e-01
2.584800e-01
2.750760e-01
2.950840e-01
3.185050e-01
3.453390e-01
2.630090e-01
2.789280e-01
2.983020e-01
3.211300e-01
3.474140e-01
2.607910e-01
2.758450e-01
2.943580e-01
3.163290e-01
3.417590e-01
2.518250e-01
2.658270e-01
2.832520e-01
3.041010e-01
3.283740e-01
3.355350e-01
3.618400e-01
3.921970e-01
4.266070e-01
4.650690e-01
3.453390e-01
3.705110e-01
4.001860e-01
4.343640e-01
4.730440e-01
3.474140e-01
3.711920e-01
3.998960e-01
4.335270e-01
4.720850e-01
3.417590e-01
3.638820e-01
3.913290e-01
4.240990e-01
4.621920e-01
3.283740e-01
3.485810e-01
3.744820e-01
4.060770e-01
4.433660e-01
4.650690e-01
5.085190e-01
5.537080e-01
6.006370e-01
6.493050e-01
4.730440e-01
5.153800e-01
5.604940e-01
6.083860e-01
6.590570e-01
4.720850e-01
5.130060e-01
5.575970e-01
6.058580e-01
6.577890e-01
4.621920e-01
5.013980e-01
5.450190e-01
5.930530e-01
6.455020e-01
4.433660e-01
4.805570e-01
5.227590e-01
5.699720e-01
6.221950e-01
6.493050e-01
7.142290e-01
7.764870e-01
8.360790e-01
8.930040e-01
6.590570e-01
7.282390e-01
7.948100e-01
8.587700e-01
9.201190e-01
6.577890e-01
7.304230e-01
8.006320e-01
8.684150e-01
9.337740e-01
6.455020e-01
7.207830e-01
7.939540e-01
8.650160e-01
9.339690e-01
6.221950e-01
6.993180e-01
7.747760e-01
8.485720e-01
9.207030e-01
8.930040e-01
9.635700e-01
1.026570e+00
1.082000e+00
1.129870e+00
9.201190e-01
1.002540e+00
1.076260e+00
1.141260e+00
1.197550e+00
9.337740e-01
1.026840e+00
1.110130e+00
1.183650e+00
1.247400e+00
9.339690e-01
1.036460e+00
1.128190e+00
1.209180e+00
1.279410e+00
9.207030e-01
1.031400e+00
1.130440e+00
1.217830e+00
1.293580e+00
1.129870e+00
1.154350e+00
1.161540e+00
1.151420e+00
1.124010e+00
1.197550e+00
1.229110e+00
1.245590e+00
1.247000e+00
1.233330e+00
1.247400e+00
1.284760e+00
1.308820e+00
1.319580e+00
1.317060e+00
1.279410e+00
1.321290e+00
1.351210e+00
1.369180e+00
1.375190e+00
1.293580e+00
1.338710e+00
1.372780e+00
1.395790e+00
1.407740e+00
1.124010e+00
1.043860e+00
9.477820e-01
8.357710e-01
7.078250e-01
1.233330e+00
1.170510e+00
1.091510e+00
9.963060e-01
8.849110e-01
1.317060e+00
1.264480e+00
1.197310e+00
1.115540e+00
1.019170e+00
1.375190e+00
1.325770e+00
1.265200e+00
1.193470e+00
1.110600e+00
1.407740e+00
1.354380e+00
1.295170e+00
1.230110e+00
1.159200e+00
7.078250e-01
5.901430e-01
4.920240e-01
4.134680e-01
3.544750e-01
8.849110e-01
7.630830e-01
6.564030e-01
5.648730e-01
4.884920e-01
1.019170e+00
9.001080e-01
7.909960e-01
6.918320e-01
6.026150e-01
1.110600e+00
1.001220e+00
8.958020e-01
7.943440e-01
6.968450e-01
1.159200e+00
1.066420e+00
9.708220e-01
8.724090e-01
7.711800e-01
3.544750e-01
3.088270e-01
2.772980e-01
2.598880e-01
2.565980e-01
4.884920e-01
4.306690e-01
3.858790e-01
3.541220e-01
3.353990e-01
6.026150e-01
5.345730e-01
4.781850e-01
4.334490e-01
4.003670e-01
6.968450e-01
6.205410e-01
5.542160e-01
4.978700e-01
4.515010e-01
7.711800e-01
6.885720e-01
6.139740e-01
5.473840e-01
4.888030e-01
2.565980e-01
2.539960e-01
2.486160e-01
2.404570e-01
2.295190e-01
3.353990e-01
3.214830e-01
3.062740e-01
2.897740e-01
2.719820e-01
4.003670e-01
3.756770e-01
3.512590e-01
3.271130e-01
3.032380e-01
4.515010e-01
4.165790e-01
3.835690e-01
3.524720e-01
3.232880e-01
4.888030e-01
4.441890e-01
4.032060e-01
3.658530e-01
3.321300e-01
2.295190e-01
2.210610e-01
2.117800e-01
2.016750e-01
1.907460e-01
2.719820e-01
2.579110e-01
2.438400e-01
2.297690e-01
2.156980e-01
3.032380e-01
2.844980e-01
2.665290e-01
2.493320e-01
2.329070e-01
3.232880e-01
3.008220e-01
2.798480e-01
2.603640e-01
2.423720e-01
3.321300e-01
3.068840e-01
2.837970e-01
2.628660e-01
2.440930e-01
1.907460e-01
1.817780e-01
1.728950e-01
1.640950e-01
1.553800e-01
2.156980e-01
2.040490e-01
1.928550e-01
1.821150e-01
1.718310e-01
2.329070e-01
2.191480e-01
2.061810e-01
1.940060e-01
1.826230e-01
2.423720e-01
2.270750e-01
2.128730e-01
1.997670e-01
1.877570e-01
2.440930e-01
2.278300e-01
2.129320e-01
1.994000e-01
1.872340e-01
1.553800e-01
1.478920e-01
1.407170e-01
1.338570e-01
1.273120e-01
1.718310e-01
1.630670e-01
1.547560e-01
1.468970e-01
1.394910e-01
1.826230e-01
1.729760e-01
1.638990e-01
1.553920e-01
1.474550e-01
1.877570e-01
1.776180e-01
1.681460e-01
1.593410e-01
1.512030e-01
1.872340e-01
1.769930e-01
1.674970e-01
1.587450e-01
1.507360e-01
1.273120e-01
1.207860e-01
1.149660e-01
1.098490e-01
1.054370e-01
1.394910e-01
1.323670e-01
1.260490e-01
1.205360e-01
1.158290e-01
1.474550e-01
1.399730e-01
1.333560e-01
1.276030e-01
1.227150e-01
1.512030e-01
1.436040e-01
1.368850e-01
1.310490e-01
1.260940e-01
1.507360e-01
1.432590e-01
1.366380e-01
1.308740e-01
1.259660e-01
9.604590e-02
1.004890e-01
1.048780e-01
1.092110e-01
1.134900e-01
9.458900e-02
9.855720e-02
1.025100e-01
1.064480e-01
1.103700e-01
9.299440e-02
9.663090e-02
1.002440e-01
1.038350e-01
1.074020e-01
9.126190e-02
9.471050e-02
9.808040e-02
1.013720e-01
1.045840e-01
8.939170e-02
9.279600e-02
9.601850e-02
9.905920e-02
1.019180e-01
1.134900e-01
1.173180e-01
1.207760e-01
1.238660e-01
1.265880e-01
1.103700e-01
1.140580e-01
1.175100e-01
1.207240e-01
1.237010e-01
1.074020e-01
1.109010e-01
1.142820e-01
1.175450e-01
1.206900e-01
1.045840e-01
1.078450e-01
1.110940e-01
1.143310e-01
1.175550e-01
1.019180e-01
1.048920e-01
1.079460e-01
1.110810e-01
1.142970e-01
1.265880e-01
1.295240e-01
1.329810e-01
1.369580e-01
1.414570e-01
1.237010e-01
1.268330e-01
1.304010e-01
1.344050e-01
1.388440e-01
1.206900e-01
1.239570e-01
1.275860e-01
1.315790e-01
1.359340e-01
1.175550e-01
1.208950e-01
1.245370e-01
1.284800e-01
1.327250e-01
1.142970e-01
1.176480e-01
1.212520e-01
1.251080e-01
1.292170e-01
1.414570e-01
1.464070e-01
1.520130e-01
1.582750e-01
1.651930e-01
1.388440e-01
1.436740e-01
1.491240e-01
1.551930e-01
1.618830e-01
1.359340e-01
1.406210e-01
1.458900e-01
1.517380e-01
1.581680e-01
1.327250e-01
1.372490e-01
1.423100e-01
1.479100e-01
1.540480e-01
1.292170e-01
1.335560e-01
1.383860e-01
1.437080e-01
1.495230e-01
1.651930e-01
1.725030e-01
1.807900e-01
1.900530e-01
2.002940e-01
1.618830e-01
1.689200e-01
1.768800e-01
1.857640e-01
1.955710e-01
1.581680e-01
1.648940e-01
1.724850e-01
1.809410e-01
1.902630e-01
1.540480e-01
1.604240e-01
1.676030e-01
1.755850e-01
1.843690e-01
1.495230e-01
1.555110e-01
1.622360e-01
1.696950e-01
1.778900e-01
2.002940e-01
2.106880e-01
2.227420e-01
2.364540e-01
2.518250e-01
1.955710e-01
2.054810e-01
2.169660e-01
2.300270e-01
2.446620e-01
1.902630e-01
1.996110e-01
2.104460e-01
2.227680e-01
2.365770e-01
1.843690e-01
1.930780e-01
2.031810e-01
2.146790e-01
2.275710e-01
1.778900e-01
1.858820e-01
1.951720e-01
2.057600e-01
2.176450e-01
2.518250e-01
2.658270e-01
2.832520e-01
3.041010e-01
3.283740e-01
2.446620e-01
2.578080e-01
2.743430e-01
2.942680e-01
3.175820e-01
2.365770e-01
2.487600e-01
2.642520e-01
2.830530e-01
3.051640e-01
2.275710e-01
2.386830e-01
2.529780e-01
2.704580e-01
2.911220e-01
2.176450e-01
2.275770e-01
2.405230e-01
2.564820e-01
2.754550e-01
3.283740e-01
3.485810e-01
3.744820e-01
4.060770e-01
4.433660e-01
3.175820e-01
3.355880e-01
3.599990e-01
3.908140e-01
4.280350e-01
3.051640e-01
3.207030e-01
3.433260e-01
3.730320e-01
4.098220e-01
2.911220e-01
3.039280e-01
3.244640e-01
3.527300e-01
3.887270e-01
2.754550e-01
2.852610e-01
3.034130e-01
3.299090e-01
3.647500e-01
4.433660e-01
4.805570e-01
5.227590e-01
5.699720e-01
6.221950e-01
4.280350e-01
4.633380e-01
5.038330e-01
5.495210e-01
6.004010e-01
4.098220e-01
4.413750e-01
4.789320e-01
5.224930e-01
5.720590e-01
3.887270e-01
4.146680e-01
4.480550e-01
4.888880e-01
5.371680e-01
3.647500e-01
3.832160e-01
4.112010e-01
4.487060e-01
4.957300e-01
6.221950e-01
6.993180e-01
7.747760e-01
8.485720e-01
9.207030e-01
6.004010e-01
6.810360e-01
7.579440e-01
8.311260e-01
9.005810e-01
5.720590e-01
6.542140e-01
7.292080e-01
7.970420e-01
8.577160e-01
5.371680e-01
6.188510e-01
6.885680e-01
7.463210e-01
7.921080e-01
4.957300e-01
5.749470e-01
6.360240e-01
6.789610e-01
7.037570e-01
9.207030e-01
1.031400e+00
1.130440e+00
1.217830e+00
1.293580e+00
9.005810e-01
1.013470e+00
1.113340e+00
1.200180e+00
1.273980e+00
8.577160e-01
9.733060e-01
1.073690e+00
1.158860e+00
1.228820e+00
7.921080e-01
9.108920e-01
1.011480e+00
1.093890e+00
1.158100e+00
7.037570e-01
8.262310e-01
9.267300e-01
1.005260e+00
1.061810e+00
1.293580e+00
1.338710e+00
1.372780e+00
1.395790e+00
1.407740e+00
1.273980e+00
1.318600e+00
1.356460e+00
1.387560e+00
1.411900e+00
1.228820e+00
1.270350e+00
1.308530e+00
1.343360e+00
1.374850e+00
1.158100e+00
1.193960e+00
1.228990e+00
1.263200e+00
1.296580e+00
1.061810e+00
1.089430e+00
1.117860e+00
1.147080e+00
1.177110e+00
1.407740e+00
1.354380e+00
1.295170e+00
1.230110e+00
1.159200e+00
1.411900e+00
1.362610e+00
1.305610e+00
1.240910e+00
1.168500e+00
1.374850e+00
1.328400e+00
1.275470e+00
1.216050e+00
1.150140e+00
1.296580e+00
1.251760e+00
1.204740e+00
1.155520e+00
1.104100e+00
1.177110e+00
1.132680e+00
1.093410e+00
1.059320e+00
1.030400e+00
1.159200e+00
1.066420e+00
9.708220e-01
8.724090e-01
7.711800e-01
1.168500e+00
1.079190e+00
9.874300e-01
8.932240e-01
7.965730e-01
1.150140e+00
1.065230e+00
9.778420e-01
8.879740e-01
7.956260e-01
1.104100e+00
1.024540e+00
9.420590e-01
8.566590e-01
7.683410e-01
1.030400e+00
9.571200e-01
8.800810e-01
7.992790e-01
7.147160e-01
7.711800e-01
6.885720e-01
6.139740e-01
5.473840e-01
4.888030e-01
7.965730e-01
7.183870e-01
6.439620e-01
5.732960e-01
5.063910e-01
7.956260e-01
7.252160e-01
6.543560e-01
5.830490e-01
5.112930e-01
7.683410e-01
7.090580e-01
6.451580e-01
5.766410e-01
5.035070e-01
7.147160e-01
6.699150e-01
6.163680e-01
5.540740e-01
4.830340e-01
4.888030e-01
4.441890e-01
4.032060e-01
3.658530e-01
3.321300e-01
5.063910e-01
4.551360e-01
4.089300e-01
3.677720e-01
3.316620e-01
5.112930e-01
4.562730e-01
4.072250e-01
3.641500e-01
3.270460e-01
5.035070e-01
4.476000e-01
3.980930e-01
3.549870e-01
3.182820e-01
4.830340e-01
4.291160e-01
3.815330e-01
3.402840e-01
3.053700e-01
3.321300e-01
3.068840e-01
2.837970e-01
2.628660e-01
2.440930e-01
3.316620e-01
3.053280e-01
2.815480e-01
2.603210e-01
2.416480e-01
3.270460e-01
3.005710e-01
2.768390e-01
2.558510e-01
2.376050e-01
3.182820e-01
2.926140e-01
2.696720e-01
2.494550e-01
2.319640e-01
3.053700e-01
2.814570e-01
2.600450e-01
2.411340e-01
2.247250e-01
2.440930e-01
2.278300e-01
2.129320e-01
1.994000e-01
1.872340e-01
2.416480e-01
2.251320e-01
2.101270e-01
1.966340e-01
1.846510e-01
2.376050e-01
2.211070e-01
2.062220e-01
1.929490e-01
1.812900e-01
2.319640e-01
2.157540e-01
2.012150e-01
1.883470e-01
1.771500e-01
2.247250e-01
2.090740e-01
1.951080e-01
1.828270e-01
1.722310e-01
1.872340e-01
1.769930e-01
1.674970e-01
1.587450e-01
1.507360e-01
1.846510e-01
1.746550e-01
1.653970e-01
1.568790e-01
1.491010e-01
1.812900e-01
1.716340e-01
1.626940e-01
1.544700e-01
1.469620e-01
1.771500e-01
1.679310e-01
1.593870e-01
1.515170e-01
1.443200e-01
1.722310e-01
1.635470e-01
1.554760e-01
1.480190e-01
1.411750e-01
1.507360e-01
1.432590e-01
1.366380e-01
1.308740e-01
1.259660e-01
1.491010e-01
1.418020e-01
1.353670e-01
1.297950e-01
1.250880e-01
1.469620e-01
1.398690e-01
1.336440e-01
1.282890e-01
1.238030e-01
1.443200e-01
1.374590e-01
1.314710e-01
1.263550e-01
1.221120e-01
1.411750e-01
1.345740e-01
1.288460e-01
1.239930e-01
1.200140e-01
8.939170e-02
9.279600e-02
9.601850e-02
9.905920e-02
1.019180e-01
8.740010e-02
9.058900e-02
9.361740e-02
9.648530e-02
9.919260e-02
8.530680e-02
8.827490e-02
9.111010e-02
9.381240e-02
9.638180e-02
8.311190e-02
8.585370e-02
8.849660e-02
9.104060e-02
9.348570e-02
8.081530e-02
8.332530e-02
8.577680e-02
8.816980e-02
9.050430e-02
1.019180e-01
1.048920e-01
1.079460e-01
1.110810e-01
1.142970e-01
9.919260e-02
1.019710e-01
1.048760e-01