<?xml version="1.0"?>
<VTKFile type="UnstructuredGrid" version="0.1" byte_order="LittleEndian" compressor="vtkZLibDataCompressor">
<UnstructuredGrid>
<Piece NumberOfPoints="10000" NumberOfCells="6400">
<Points>
<DataArray type="Float32" NumberOfComponents="3" format="ascii">
-3.360000e+00 0.000000e+00 0.000000e+00
-3.276000e+00 0.000000e+00 0.000000e+00
-3.192000e+00 0.000000e+00 0.000000e+00
-3.108000e+00 0.000000e+00 0.000000e+00
-3.024000e+00 0.000000e+00 0.000000e+00
-3.360000e+00 6.412500e-02 0.000000e+00
-3.276000e+00 6.412500e-02 0.000000e+00
-3.192000e+00 6.412500e-02 0.000000e+00
-3.108000e+00 6.412500e-02 0.000000e+00
-3.024000e+00 6.412500e-02 0.000000e+00
-3.360000e+00 1.282500e-01 0.000000e+00
-3.276000e+00 1.282500e-01 0.000000e+00
-3.192000e+00 1.282500e-01 0.000000e+00
-3.108000e+00 1.282500e-01 0.000000e+00
-3.024000e+00 1.282500e-01 0.000000e+00
-3.360000e+00 1.923750e-01 0.000000e+00
-3.276000e+00 1.923750e-01 0.000000e+00
-3.192000e+00 1.923750e-01 0.000000e+00
-3.108000e+00 1.923750e-01 0.000000e+00
-3.024000e+00 1.923750e-01 0.000000e+00
-3.360000e+00 2.565000e-01 0.000000e+00
-3.276000e+00 2.565000e-01 0.000000e+00
-3.192000e+00 2.565000e-01 0.000000e+00
-3.108000e+00 2.565000e-01 0.000000e+00
-3.024000e+00 2.565000e-01 0.000000e+00
-3.024000e+00 0.000000e+00 0.000000e+00
-2.940000e+00 0.000000e+00 0.000000e+00
-2.856000e+00 0.000000e+00 0.000000e+00
-2.772000e+00 0.000000e+00 0.000000e+00
-2.688000e+00 0.000000e+00 0.000000e+00
-3.024000e+00 6.412500e-02 0.000000e+00
-2.940000e+00 6.412500e-02 0.000000e+00
-2.856000e+00 6.412500e-02 0.000000e+00
-2.772000e+00 6.412500e-02 0.000000e+00
-2.688000e+00 6.412500e-02 0.000000e+00
-3.024000e+00 1.282500e-01 0.000000e+00
-2.940000e+00 1.282500e-01 0.000000e+00
-2.856000e+00 1.282500e-01 0.000000e+00
-2.772000e+00 1.282500e-01 0.000000e+00
-2.688000e+00 1.282500e-01 0.000000e+00
-3.024000e+00 1.923750e-01 0.000000e+00
-2.940000e+00 1.923750e-01 0.000000e+00
-2.856000e+00 1.923750e-01 0.000000e+00
-2.772000e+00 1.923750e-01 0.000000e+00
-2.688000e+00 1.923750e-01 0.000000e+00
-3.024000e+00 2.565000e-01 0.000000e+00
-2.940000e+00 2.565000e-01 0.000000e+00
-2.856000e+00 2.565000e-01 0.000000e+00
-2.772000e+00 2.565000e-01 0.000000e+00
-2.688000e+00 2.565000e-01 0.000000e+00
-2.688000e+00 0.000000e+00 0.000000e+00
-2.604000e+00 0.000000e+00 0.000000e+00
-2.520000e+00 0.000000e+00 0.000000e+00
-2.436000e+00 0.000000e+00 0.000000e+00
-2.352000e+00 0.000000e+00 0.000000e+00
-2.688000e+00 6.412500e-02 0.000000e+00
-2.604000e+00 6.412500e-02 0.000000e+00
-2.520000e+00 6.412500e-02 0.000000e+00
-2.436000e+00 6.412500e-02 0.000000e+00
-2.352000e+00 6.412500e-02 0.000000e+00
-2.688000e+00 1.282500e-01 0.000000e+00
-2.604000e+00 1.282500e-01 0.000000e+00
-2.520000e+00 1.282500e-01 0.000000e+00
-2.436000e+00 1.282500e-01 0.000000e+00
-2.352000e+00 1.282500e-01 0.000000e+00
-2.688000e+00 1.923750e-01 0.000000e+00
-2.604000e+00 1.923750e-01 0.000000e+00
-2.520000e+00 1.923750e-01 0.000000e+00
-2.436000e+00 1.923750e-01 0.000000e+00
-2.352000e+00 1.923750e-01 0.000000e+00
-2.688000e+00 2.565000e-01 0.000000e+00
-2.604000e+00 2.565000e-01 0.000000e+00
-2.520000e+00 2.565000e-01 0.000000e+00
-2.436000e+00 2.565000e-01 0.000000e+00
-2.352000e+00 2.565000e-01 0.000000e+00
-2.352000e+00 0.000000e+00 0.000000e+00
-2.268000e+00 0.000000e+00 0.000000e+00
-2.184000e+00 0.000000e+00 0.000000e+00
-2.100000e+00 0.000000e+00 0.000000e+00
-2.016000e+00 0.000000e+00 0.000000e+00
-2.352000e+00 6.412500e-02 0.000000e+00
-2.268000e+00 6.412500e-02 0.000000e+00
-2.184000e+00 6.412500e-02 0.000000e+00
-2.100000e+00 6.412500e-02 0.000000e+00
-2.016000e+00 6.412500e-02 0.000000e+00
-2.352000e+00 1.282500e-01 0.000000e+00
-2.268000e+00 1.282500e-01 0.000000e+00
-2.184000e+00 1.282500e-01 0.000000e+00
-2.100000e+00 1.282500e-01 0.000000e+00
-2.016000e+00 1.282500e-01 0.000000e+00
-2.352000e+00 1.923750e-01 0.000000e+00
-2.268000e+00 1.923750e-01 0.000000e+00
-2.184000e+00 1.923750e-01 0.000000e+00
-2.100000e+00 1.923750e-01 0.000000e+00
-2.016000e+00 1.923750e-01 0.000000e+00
-2.352000e+00 2.565000e-01 0.000000e+00
-2.268000e+00 2.565000e-01 0.000000e+00
-2.184000e+00 2.565000e-01 0.000000e+00
-2.100000e+00 2.565000e-01 0.000000e+00
-2.016000e+00 2.565000e-01 0.000000e+00
-2.016000e+00 0.000000e+00 0.000000e+00
-1.932000e+00 0.000000e+00 0.000000e+00
-1.848000e+00 0.000000e+00 0.000000e+00
-1.764000e+00 0.000000e+00 0.000000e+00
-1.680000e+00 0.000000e+00 0.000000e+00
-2.016000e+00 6.412500e-02 0.000000e+00
-1.932000e+00 6.412500e-02 0.000000e+00
-1.848000e+00 6.412500e-02 0.000000e+00
-1.764000e+00 6.412500e-02 0.000000e+00
-1.680000e+00 6.412500e-02 0.000000e+00
-2.016000e+00 1.282500e-01 0.000000e+00
-1.932000e+00 1.282500e-01 0.000000e+00
-1.848000e+00 1.282500e-01 0.000000e+00
-1.764000e+00 1.282500e-01 0.000000e+00
-1.680000e+00 1.282500e-01 0.000000e+00
-2.016000e+00 1.923750e-01 0.000000e+00
-1.932000e+00 1.923750e-01 0.000000e+00
-1.848000e+00 1.923750e-01 0.000000e+00
-1.764000e+00 1.923750e-01 0.000000e+00
-1.680000e+00 1.923750e-01 0.000000e+00
-2.016000e+00 2.565000e-01 0.000000e+00
-1.932000e+00 2.565000e-01 0.000000e+00
-1.848000e+00 2.565000e-01 0.000000e+00
-1.764000e+00 2.565000e-01 0.000000e+00
-1.680000e+00 2.565000e-01 0.000000e+00
-1.680000e+00 0.000000e+00 0.000000e+00
-1.596000e+00 0.000000e+00 0.000000e+00
-1.512000e+00 0.000000e+00 0.000000e+00
-1.428000e+00 0.000000e+00 0.000000e+00
-1.344000e+00 0.000000e+00 0.000000e+00
-1.680000e+00 6.412500e-02 0.000000e+00
-1.596000e+00 6.412500e-02 0.000000e+00
-1.512000e+00 6.412500e-02 0.000000e+00
-1.428000e+00 6.412500e-02 0.000000e+00
-1.344000e+00 6.412500e-02 0.000000e+00
-1.680000e+00 1.282500e-01 0.000000e+00
-1.596000e+00 1.282500e-01 0.000000e+00
-1.512000e+00 1.282500e-01 0.000000e+00
-1.428000e+00 1.282500e-01 0.000000e+00
-1.344000e+00 1.282500e-01 0.000000e+00
-1.680000e+00 1.923750e-01 0.000000e+00
-1.596000e+00 1.923750e-01 0.000000e+00
-1.512000e+00 1.923750e-01 0.000000e+00
-1.428000e+00 1.923750e-01 0.000000e+00
-1.344000e+00 1.923750e-01 0.000000e+00
-1.680000e+00 2.565000e-01 0.000000e+00
-1.596000e+00 2.565000e-01 0.000000e+00
-1.512000e+00 2.565000e-01 0.000000e+00
-1.428000e+00 2.565000e-01 0.000000e+00
-1.344000e+00 2.565000e-01 0.000000e+00
-1.344000e+00 0.000000e+00 0.000000e+00
-1.260000e+00 0.000000e+00 0.000000e+00
-1.176000e+00 0.000000e+00 0.000000e+00
-1.092000e+00 0.000000e+00 0.000000e+00
-1.008000e+00 0.000000e+00 0.000000e+00
-1.344000e+00 6.412500e-02 0.000000e+00
-1.260000e+00 6.412500e-02 0.000000e+00
-1.176000e+00 6.412500e-02 0.000000e+00
-1.092000e+00 6.412500e-02 0.000000e+00
-1.008000e+00 6.412500e-02 0.000000e+00
-1.344000e+00 1.282500e-01 0.000000e+00
-1.260000e+00 1.282500e-01 0.000000e+00
-1.176000e+00 1.282500e-01 0.000000e+00
-1.092000e+00 1.282500e-01 0.000000e+00
-1.008000e+00 1.282500e-01 0.000000e+00
-1.344000e+00 1.923750e-01 0.000000e+00
-1.260000e+00 1.923750e-01 0.000000e+00
-1.176000e+00 1.923750e-01 0.000000e+00
-1.092000e+00 1.923750e-01 0.000000e+00
-1.008000e+00 1.923750e-01 0.000000e+00
-1.344000e+00 2.565000e-01 0.000000e+00
-1.260000e+00 2.565000e-01 0.000000e+00
-1.176000e+00 2.565000e-01 0.000000e+00
-1.092000e+00 2.565000e-01 0.000000e+00
-1.008000e+00 2.565000e-01 0.000000e+00
-1.008000e+00 0.000000e+00 0.000000e+00
-9.240000e-01 0.000000e+00 0.000000e+00
-8.400000e-01 0.000000e+00 0.000000e+00
-7.560000e-01 0.000000e+00 0.000000e+00
-6.720000e-01 0.000000e+00 0.000000e+00
-1.008000e+00 6.412500e-02 0.000000e+00
-9.240000e-01 6.412500e-02 0.000000e+00
-8.400000e-01 6.412500e-02 0.000000e+00
-7.560000e-01 6.412500e-02 0.000000e+00
-6.720000e-01 6.412500e-02 0.000000e+00
-1.008000e+00 1.282500e-01 0.000000e+00
-9.240000e-01 1.282500e-01 0.000000e+00
-8.400000e-01 1.282500e-01 0.000000e+00
-7.560000e-01 1.282500e-01 0.000000e+00
-6.720000e-01 1.282500e-01 0.000000e+00
-1.008000e+00 1.923750e-01 0.000000e+00
-9.240000e-01 1.923750e-01 0.000000e+00
-8.400000e-01 1.923750e-01 0.000000e+00
-7.560000e-01 1.923750e-01 0.000000e+00
-6.720000e-01 1.923750e-01 0.000000e+00
-1.008000e+00 2.565000e-01 0.000000e+00
-9.240000e-01 2.565000e-01 0.000000e+00
-8.400000e-01 2.565000e-01 0.000000e+00
-7.560000e-01 2.565000e-01 0.000000e+00
-6.720000e-01 2.565000e-01 0.000000e+00
-6.720000e-01 0.000000e+00 0.000000e+00
-5.880000e-01 0.000000e+00 0.000000e+00
-5.040000e-01 0.000000e+00 0.000000e+00
-4.200000e-01 0.000000e+00 0.000000e+00
-3.360000e-01 0.000000e+00 0.000000e+00
-6.720000e-01 6.412500e-02 0.000000e+00
-5.880000e-01 6.412500e-02 0.000000e+00
-5.040000e-01 6.412500e-02 0.000000e+00
-4.200000e-01 6.412500e-02 0.000000e+00
-3.360000e-01 6.412500e-02 0.000000e+00
-6.720000e-01 1.282500e-01 0.000000e+00
-5.880000e-01 1.282500e-01 0.000000e+00
-5.040000e-01 1.282500e-01 0.000000e+00
-4.200000e-01 1.282500e-01 0.000000e+00
-3.360000e-01 1.282500e-01 0.000000e+00
-6.720000e-01 1.923750e-01 0.000000e+00
-5.880000e-01 1.923750e-01 0.000000e+00
-5.040000e-01 1.923750e-01 0.000000e+00
-4.200000e-01 1.923750e-01 0.000000e+00
-3.360000e-01 1.923750e-01 0.000000e+00
-6.720000e-01 2.565000e-01 0.000000e+00
-5.880000e-01 2.565000e-01 0.000000e+00
-5.040000e-01 2.565000e-01 0.000000e+00
-4.200000e-01 2.565000e-01 0.000000e+00
-3.360000e-01 2.565000e-01 0.000000e+00
-3.360000e-01 0.000000e+00 0.000000e+00
-2.520000e-01 0.000000e+00 0.000000e+00
-1.680000e-01 0.000000e+00 0.000000e+00
-8.400000e-02 0.000000e+00 0.000000e+00
-4.440890e-16 0.000000e+00 0.000000e+00
-3.360000e-01 6.412500e-02 0.000000e+00
-2.520000e-01 6.412500e-02 0.000000e+00
-1.680000e-01 6.412500e-02 0.000000e+00
-8.400000e-02 6.412500e-02 0.000000e+00
-4.440890e-16 6.412500e-02 0.000000e+00
-3.360000e-01 1.282500e-01 0.000000e+00
-2.520000e-01 1.282500e-01 0.000000e+00
-1.680000e-01 1.282500e-01 0.000000e+00
-8.400000e-02 1.282500e-01 0.000000e+00
-4.440890e-16 1.282500e-01 0.000000e+00
-3.360000e-01 1.923750e-01 0.000000e+00
-2.520000e-01 1.923750e-01 0.000000e+00
-1.680000e-01 1.923750e-01 0.000000e+00
[...]
<PointData>
<DataArray type="Float32" Name="V1" format="ascii">
0.000000e+00
0.000000e+00
0.000000e+00
0.000000e+00
0.000000e+00
6.347820e-02
5.970600e-02
5.545600e-02
5.072820e-02
4.552270e-02
1.013490e-01
9.784760e-02
9.308590e-02
8.706330e-02
7.977980e-02
1.136110e-01
1.144250e-01
1.128900e-01
1.090050e-01
1.027710e-01
1.002660e-01
1.094380e-01
1.148670e-01
1.165540e-01
1.144970e-01
0.000000e+00
0.000000e+00
0.000000e+00
0.000000e+00
0.000000e+00
4.552270e-02
3.976330e-02
3.532460e-02
3.220640e-02
3.040880e-02
7.977980e-02
7.140000e-02
6.475490e-02
5.984440e-02
5.666860e-02
1.027710e-01
9.491010e-02
8.829090e-02
8.291400e-02
7.877930e-02
1.144970e-01
1.102930e-01
1.059330e-01
1.014150e-01
9.674090e-02
0.000000e+00
0.000000e+00
0.000000e+00
0.000000e+00
0.000000e+00
3.040880e-02
2.880610e-02
2.749570e-02
2.647770e-02
2.575210e-02
5.666860e-02
5.392120e-02
5.171580e-02
5.005220e-02
4.893050e-02
7.877930e-02
7.534550e-02
7.266030e-02
7.072350e-02
6.953530e-02
9.674090e-02
9.307890e-02
9.032920e-02
8.849170e-02
8.756650e-02
0.000000e+00
0.000000e+00
0.000000e+00
0.000000e+00
0.000000e+00
2.575210e-02
2.518360e-02
2.492510e-02
2.497650e-02
2.533800e-02
4.893050e-02
4.810530e-02
4.779390e-02
4.799630e-02
4.871250e-02
6.953530e-02
6.876510e-02
6.860640e-02
6.905910e-02
7.012340e-02
8.756650e-02
8.716300e-02
8.736260e-02
8.816520e-02
8.957090e-02
0.000000e+00
0.000000e+00
0.000000e+00
0.000000e+00
0.000000e+00
2.533800e-02
2.583430e-02
2.651370e-02
2.737620e-02
2.842170e-02
4.871250e-02
4.968870e-02
5.100320e-02
5.265620e-02
5.464750e-02
7.012340e-02
7.156310e-02
7.346860e-02
7.584010e-02
7.867740e-02
8.957090e-02
9.145750e-02
9.390990e-02
9.692790e-02
1.005120e-01
0.000000e+00
0.000000e+00
0.000000e+00
0.000000e+00
0.000000e+00
2.842170e-02
2.964280e-02
3.114640e-02
3.293230e-02
3.500070e-02
5.464750e-02
5.695400e-02
5.975070e-02
6.303750e-02
6.681460e-02
7.867740e-02
8.193360e-02
8.581300e-02
9.031570e-02
9.544180e-02
1.005120e-01
1.045820e-01
1.093330e-01
1.147670e-01
1.208820e-01
0.000000e+00
0.000000e+00
0.000000e+00
0.000000e+00
0.000000e+00
3.500070e-02
3.730000e-02
4.003150e-02
4.319510e-02
4.679080e-02
6.681460e-02
7.099940e-02
7.592250e-02
8.158390e-02
8.798360e-02
9.544180e-02
1.010980e-01
1.076730e-01
1.151670e-01
1.235790e-01
1.208820e-01
1.275960e-01
1.352830e-01
1.439430e-01
1.535760e-01
0.000000e+00
0.000000e+00
0.000000e+00
0.000000e+00
0.000000e+00
4.679080e-02
5.065390e-02
5.524380e-02
6.056030e-02
6.660350e-02
8.798360e-02
9.484450e-02
1.029170e-01
1.122000e-01
1.226950e-01
1.235790e-01
1.325720e-01
1.430190e-01
1.549200e-01
1.682760e-01
1.535760e-01
1.638360e-01
1.755500e-01
1.887200e-01
2.033440e-01
0.000000e+00
0.000000e+00
0.000000e+00
0.000000e+00
0.000000e+00
6.660350e-02
7.284850e-02
8.024530e-02
8.879390e-02
9.849430e-02
1.226950e-01
1.335380e-01
1.462630e-01
1.608720e-01
1.773640e-01
1.682760e-01
1.820670e-01
1.980530e-01
2.162340e-01
2.366090e-01
2.033440e-01
2.184370e-01
2.356160e-01
2.548800e-01
2.762290e-01
0.000000e+00
0.000000e+00
0.000000e+00
0.000000e+00
0.000000e+00
9.849430e-02
1.083890e-01
1.195950e-01
1.321110e-01
1.459370e-01
1.773640e-01
1.942490e-01
2.132440e-01
2.343470e-01
2.575580e-01
2.366090e-01
2.575800e-01
2.809460e-01
3.067070e-01
3.348620e-01
2.762290e-01
2.983810e-01
3.227020e-01
3.491910e-01
3.778500e-01
0.000000e+00
0.000000e+00
0.000000e+00
0.000000e+00
0.000000e+00
1.459370e-01
1.611070e-01
1.763160e-01
1.915620e-01
2.068470e-01
2.575580e-01
2.831690e-01
3.089250e-01
3.348250e-01
3.608700e-01
3.348620e-01
3.661860e-01
3.978280e-01
4.297890e-01
4.620680e-01
3.778500e-01
4.101570e-01
4.430250e-01
4.764530e-01
5.104420e-01
0.000000e+00
0.000000e+00
0.000000e+00
0.000000e+00
0.000000e+00
2.068470e-01
2.254710e-01
2.409350e-01
2.532390e-01
2.623830e-01
3.608700e-01
3.926500e-01
4.197620e-01
4.422060e-01
4.599830e-01
4.620680e-01
5.015360e-01
5.364800e-01
5.669020e-01
5.928000e-01
5.104420e-01
5.521300e-01
5.910900e-01
6.273250e-01
6.608330e-01
0.000000e+00
0.000000e+00
0.000000e+00
0.000000e+00
0.000000e+00
2.623830e-01
2.704340e-01
2.730160e-01
2.701280e-01
2.617720e-01
4.599830e-01
4.765910e-01
4.847010e-01
4.843130e-01
4.754260e-01
5.928000e-01
6.184720e-01
6.350570e-01
6.425540e-01
6.409620e-01
6.608330e-01
6.960770e-01
7.240830e-01
7.448510e-01
7.583810e-01
0.000000e+00
0.000000e+00
0.000000e+00
0.000000e+00
0.000000e+00
2.617720e-01
2.405190e-01
2.171750e-01
1.917410e-01
1.642170e-01
4.754260e-01
4.456170e-01
4.107760e-01
3.709040e-01
3.260010e-01
6.409620e-01
6.152940e-01
5.808030e-01
5.374890e-01
4.853520e-01
7.583810e-01
7.495510e-01
7.272570e-01
6.914960e-01
6.422700e-01
0.000000e+00
0.000000e+00
0.000000e+00
0.000000e+00
0.000000e+00
1.642170e-01
1.338310e-01
1.070620e-01
8.390820e-02
6.437040e-02
3.260010e-01
2.721230e-01
2.227110e-01
1.777660e-01
1.372870e-01
4.853520e-01
4.148750e-01
3.469490e-01
2.815740e-01
2.187490e-01
6.422700e-01
5.620870e-01
4.797740e-01
3.953310e-01
3.087580e-01
0.000000e+00
0.000000e+00
0.000000e+00
0.000000e+00
0.000000e+00
6.437040e-02
5.100720e-02
3.768410e-02
2.440140e-02
1.115880e-02
1.372870e-01
1.085450e-01
8.099570e-02
5.464020e-02
2.947800e-02
2.187490e-01
1.726120e-01
1.299350e-01
9.071660e-02
5.495780e-02
3.087580e-01
2.432100e-01
1.845010e-01
1.326300e-01
8.759800e-02
0.000000e+00
0.000000e+00
0.000000e+00
0.000000e+00
0.000000e+00
1.115880e-02
2.579950e-03
-3.658150e-03
-7.555550e-03
-9.112240e-03
2.947800e-02
1.309370e-02
1.337630e-03
-5.790300e-03
-8.290050e-03
5.495780e-02
3.154130e-02
1.498730e-02
5.295750e-03
2.466580e-03
8.759800e-02
5.792280e-02
3.729100e-02
2.570260e-02
2.315770e-02
0.000000e+00
0.000000e+00
0.000000e+00
0.000000e+00
0.000000e+00
-9.112240e-03
-1.039690e-02
-1.020530e-02
-8.537590e-03
-5.393670e-03
-8.290050e-03
-1.024080e-02
-9.766310e-03
-6.866420e-03
-1.541200e-03
2.466580e-03
4.680910e-04
1.317060e-03
5.013500e-03
1.155740e-02
2.315770e-02
2.172990e-02
2.304480e-02
2.710220e-02
3.390210e-02
0.000000e+00
0.000000e+00
0.000000e+00
0.000000e+00
0.000000e+00
-5.393670e-03
-3.633550e-03
-2.073250e-03
-7.127840e-04
4.478560e-04
-1.541200e-03
1.446510e-03
3.998150e-03
6.113740e-03
7.793270e-03
1.155740e-02
1.524020e-02
1.821420e-02
2.047960e-02
2.203630e-02
3.390210e-02
3.774740e-02
4.057490e-02
4.238470e-02
4.317680e-02
0.000000e+00
0.000000e+00
0.000000e+00
0.000000e+00
0.000000e+00
4.478560e-04
1.597130e-03
1.384450e-03
-1.902020e-04
-3.126810e-03
7.793270e-03
9.263380e-03
8.772170e-03
6.319670e-03
1.905860e-03
2.203630e-02
2.299870e-02
2.216320e-02
1.952960e-02
1.509800e-02
4.317680e-02
4.280320e-02
4.155750e-02
3.943960e-02
3.644960e-02
1.002660e-01
1.094380e-01
1.148670e-01
1.165540e-01
1.144970e-01
9.945850e-02
1.078390e-01
1.138380e-01
1.174550e-01
1.186910e-01
9.848610e-02
1.058970e-01
1.119850e-01
1.167530e-01
1.201980e-01
9.734850e-02
1.036100e-01
1.093090e-01
1.144450e-01
1.190190e-01
9.604590e-02
1.009800e-01
1.058090e-01
1.105340e-01
1.151530e-01
1.144970e-01
1.102930e-01
1.059330e-01
1.014150e-01
9.674090e-02
1.186910e-01
1.173910e-01
1.153240e-01
1.124910e-01
1.088900e-01
1.201980e-01
1.211520e-01
1.209600e-01
1.196210e-01
1.171360e-01
1.190190e-01
1.215770e-01
1.228390e-01
1.228060e-01
1.214770e-01
1.151530e-01
1.186650e-01
1.209620e-01
1.220450e-01
1.219140e-01
9.674090e-02
9.307890e-02
9.032920e-02
8.849170e-02
8.756650e-02
1.088900e-01
1.057370e-01
1.033900e-01
1.018490e-01
1.011130e-01
1.171360e-01
1.146510e-01
1.128260e-01
1.116590e-01
1.111520e-01
1.214770e-01
1.198210e-01
1.186370e-01
1.179240e-01
1.176830e-01
1.219140e-01
1.212460e-01
1.208220e-01
1.206420e-01
1.207070e-01
8.756650e-02
8.716300e-02
8.736260e-02
8.816520e-02
8.957090e-02
1.011130e-01
1.009740e-01
1.014420e-01
1.025170e-01
1.041990e-01
1.111520e-01
1.112630e-01
1.119640e-01
1.132520e-01
1.151290e-01
1.176830e-01
1.180310e-01
1.189260e-01
1.203700e-01
1.223600e-01
1.207070e-01
1.212760e-01
1.223310e-01
1.238700e-01
1.258940e-01
8.957090e-02
9.145750e-02
9.390990e-02
9.692790e-02
1.005120e-01
1.041990e-01
1.063660e-01
1.091280e-01
1.124870e-01
1.164410e-01
1.151290e-01
1.174810e-01
1.204350e-01
1.239900e-01
1.281470e-01
1.223600e-01
1.248050e-01
1.278310e-01
1.314380e-01
1.356270e-01
1.258940e-01
1.283360e-01
1.313140e-01
1.348300e-01
1.388830e-01
1.005120e-01
1.045820e-01
1.093330e-01
1.147670e-01
1.208820e-01
1.164410e-01
1.209000e-01
1.260490e-01
1.318880e-01
1.384170e-01
1.281470e-01
1.328050e-01
1.381430e-01
1.441600e-01
1.508570e-01
1.356270e-01
1.402960e-01
1.456150e-01
1.515840e-01
1.582020e-01
1.388830e-01
1.433740e-01
1.484650e-01
1.541580e-01
1.604520e-01
1.208820e-01
1.275960e-01
1.352830e-01
1.439430e-01
1.535760e-01
1.384170e-01
1.455110e-01
1.535640e-01
1.625750e-01
1.725430e-01
1.508570e-01
1.580760e-01
1.662200e-01
1.752910e-01
1.852870e-01
1.582020e-01
1.652890e-01
1.732530e-01
1.820920e-01
1.918060e-01
1.604520e-01
1.671520e-01
1.746610e-01
1.829770e-01
1.921020e-01
1.535760e-01
1.638360e-01
1.755500e-01
1.887200e-01
2.033440e-01
1.725430e-01
1.830400e-01
1.949570e-01
2.082930e-01
2.230480e-01
1.852870e-01
1.957170e-01
2.075200e-01
2.206970e-01
2.352460e-01
1.918060e-01
2.018660e-01
2.132410e-01
2.259310e-01
2.399370e-01
1.921020e-01
2.014880e-01
2.121190e-01
2.239970e-01
2.371210e-01
2.033440e-01
2.184370e-01
2.356160e-01
2.548800e-01
2.762290e-01
2.230480e-01
2.380610e-01
2.551590e-01
2.743440e-01
2.956140e-01
2.352460e-01
2.498590e-01
2.665630e-01
2.853600e-01
3.062480e-01
2.399370e-01
2.538300e-01
2.698270e-01
2.879280e-01
3.081310e-01
2.371210e-01
2.499760e-01
2.649520e-01
2.820480e-01
3.012630e-01
2.762290e-01
2.983810e-01
3.227020e-01
3.491910e-01
3.778500e-01
2.956140e-01
3.173630e-01
3.414590e-01
3.679020e-01
3.966920e-01
3.062480e-01
3.272720e-01
3.508400e-01
3.769540e-01
4.056130e-01
3.081310e-01
3.281060e-01
3.508440e-01
3.763470e-01
4.046130e-01
3.012630e-01
3.198660e-01
3.414720e-01
3.660810e-01
3.936920e-01
3.778500e-01
4.101570e-01
4.430250e-01
4.764530e-01
5.104420e-01
3.966920e-01
4.290120e-01
4.622880e-01
4.965210e-01
5.317100e-01
4.056130e-01
4.376220e-01
4.709660e-01
5.056450e-01
5.416590e-01
4.046130e-01
4.359880e-01
4.690590e-01
5.038270e-01
5.402900e-01
3.936920e-01
4.241100e-01
4.565670e-01
4.910650e-01
5.276030e-01
5.104420e-01
5.521300e-01
5.910900e-01
6.273250e-01
6.608330e-01
5.317100e-01
5.757710e-01
6.175130e-01
6.569340e-01
6.940370e-01
5.416590e-01
5.878350e-01
6.319960e-01
6.741420e-01
7.142720e-01
5.402900e-01
5.883220e-01
6.345410e-01
6.789470e-01
7.215400e-01
5.276030e-01
5.772320e-01
6.251480e-01
6.713500e-01
7.158390e-01
6.608330e-01
6.960770e-01
7.240830e-01
7.448510e-01
7.583810e-01
6.940370e-01
7.359790e-01
7.712210e-01
7.997650e-01
8.216100e-01
7.142720e-01
7.623380e-01
8.039740e-01
8.391790e-01
8.679540e-01
7.215400e-01
7.751560e-01
8.223400e-01
8.630920e-01
8.974120e-01
7.158390e-01
7.744320e-01
8.263210e-01
8.715050e-01
9.099840e-01
7.583810e-01
7.495510e-01
7.272570e-01
6.914960e-01
6.422700e-01
8.216100e-01
8.249200e-01
8.158070e-01
7.942740e-01
7.603190e-01
8.679540e-01
8.806800e-01
8.820950e-01
8.722000e-01
8.509950e-01
8.974120e-01
9.168320e-01
9.261190e-01
9.252750e-01
9.142980e-01
9.099840e-01
9.333760e-01
9.478800e-01
9.534980e-01
9.502290e-01
6.422700e-01
5.620870e-01
4.797740e-01
3.953310e-01
3.087580e-01
7.603190e-01
6.887410e-01
6.075610e-01
5.167790e-01
4.163960e-01
8.509950e-01
7.895660e-01
7.135360e-01
6.229030e-01
5.176690e-01
9.142980e-01
8.645650e-01
7.977000e-01
7.137040e-01
6.125780e-01
9.502290e-01
9.137350e-01
8.600520e-01
7.891820e-01
7.011220e-01
3.087580e-01
2.432100e-01
1.845010e-01
1.326300e-01
8.759800e-02
4.163960e-01
3.312770e-01
2.552990e-01
1.884620e-01
1.307650e-01
5.176690e-01
4.193270e-01
3.301390e-01
2.501060e-01
1.792270e-01
6.125780e-01
5.073590e-01
4.090210e-01
3.175620e-01
2.329830e-01
7.011220e-01
5.953750e-01
4.919440e-01
3.908310e-01
2.920340e-01
8.759800e-02
5.792280e-02
3.729100e-02
2.570260e-02
2.315770e-02
1.307650e-01
9.373740e-02
6.748790e-02
5.201680e-02
4.732400e-02
1.792270e-01
1.341590e-01
1.014640e-01
8.114170e-02
7.319220e-02
2.329830e-01
1.791880e-01
1.392190e-01
1.130770e-01
1.007620e-01
2.920340e-01
2.288240e-01
1.807530e-01
1.478240e-01
1.300340e-01
2.315770e-02
2.172990e-02
2.304480e-02
2.710220e-02
3.390210e-02
4.732400e-02
4.451790e-02
4.496090e-02
4.865300e-02
5.559410e-02
7.319220e-02
6.786880e-02
6.652900e-02
6.917270e-02
7.580000e-02
1.007620e-01
9.178270e-02
8.774910e-02
8.866150e-02
9.451990e-02
1.300340e-01
1.162600e-01
1.086210e-01
1.071190e-01
1.117540e-01
3.390210e-02
3.774740e-02
4.057490e-02
4.238470e-02
4.317680e-02
5.559410e-02
5.923280e-02
6.160920e-02
6.272320e-02
6.257490e-02
7.580000e-02
7.905590e-02
8.085210e-02
8.118880e-02
8.006580e-02
9.451990e-02
9.721650e-02
9.830370e-02
9.778130e-02
9.564950e-02
1.117540e-01
1.137150e-01
1.139640e-01
1.125010e-01
1.093260e-01
4.317680e-02
4.280320e-02
4.155750e-02
3.943960e-02
3.644960e-02
6.257490e-02
6.165420e-02
5.992090e-02
5.737500e-02
5.401650e-02
8.006580e-02
7.850160e-02
7.622560e-02
7.323760e-02
6.953760e-02
9.564950e-02
9.334550e-02
9.047140e-02
8.702730e-02
8.301320e-02
1.093260e-01
1.061860e-01
1.026580e-01
9.874420e-02
9.444300e-02
9.604590e-02
1.009800e-01
1.058090e-01
1.105340e-01
1.151530e-01
9.458900e-02
9.900480e-02
1.033720e-01
1.076920e-01
1.119630e-01
9.299440e-02
9.702810e-02
1.010010e-01
1.049120e-01
1.087620e-01
9.126190e-02
9.505010e-02
9.869440e-02
1.021950e-01
1.055510e-01
8.939170e-02
9.307080e-02
9.645350e-02
9.953990e-02
1.023300e-01
1.151530e-01
1.186650e-01
1.209620e-01
1.220450e-01
1.219140e-01
1.119630e-01
1.155010e-01
1.180740e-01
1.196810e-01
1.203220e-01
1.087620e-01
1.121560e-01
1.148180e-01
1.167470e-01
1.179440e-01
1.055510e-01
1.086300e-01
1.111940e-01
1.132440e-01
1.147810e-01
1.023300e-01
1.049220e-01
1.072030e-01
1.091730e-01
1.108320e-01
1.219140e-01
1.212460e-01
1.208220e-01
1.206420e-01
1.207070e-01
1.203220e-01
1.203840e-01
1.205650e-01
1.208660e-01
1.212860e-01
1.179440e-01
1.185810e-01
1.192510e-01
1.199540e-01
1.206900e-01
1.147810e-01
1.158380e-01
1.168800e-01
1.179080e-01
1.189200e-01
1.108320e-01
1.121540e-01
1.134520e-01
1.147260e-01
1.159760e-01
1.207070e-01
1.212760e-01
1.223310e-01
1.238700e-01
1.258940e-01
1.212860e-01
1.220900e-01
1.233100e-01
1.249460e-01
1.269970e-01
1.206900e-01
1.217110e-01
1.230830e-01
1.248060e-01
1.268800e-01
1.189200e-01
1.201390e-01
1.216490e-01
1.234500e-01
1.255420e-01
1.159760e-01
1.173740e-01
1.190080e-01
1.208780e-01
1.229840e-01
1.258940e-01
1.283360e-01
1.313140e-01
1.348300e-01
1.388830e-01
1.269970e-01
1.294270e-01
1.323510e-01
1.357710e-01
1.396860e-01
1.268800e-01
1.292930e-01
1.321580e-01
1.354770e-01
1.392490e-01
1.255420e-01
1.279330e-01
1.307350e-01
1.339480e-01
1.375720e-01
1.229840e-01
1.253480e-01
1.280820e-01
1.311840e-01
1.346560e-01
1.388830e-01
1.433740e-01
1.484650e-01
1.541580e-01
1.604520e-01
1.396860e-01
1.439950e-01
1.488710e-01
1.543140e-01
1.603250e-01
1.392490e-01
1.433720e-01
1.480290e-01
1.532190e-01
1.589430e-01
1.375720e-01
1.415050e-01
1.459390e-01
1.508720e-01
1.563060e-01
1.346560e-01
1.383950e-01
1.426010e-01
1.472740e-01
1.524140e-01
1.604520e-01
1.671520e-01
1.746610e-01
1.829770e-01
1.921020e-01
1.603250e-01
1.666900e-01
1.738260e-01
1.817330e-01
1.904120e-01
1.589430e-01
1.649700e-01
1.717310e-01
1.792250e-01
1.874520e-01
1.563060e-01
1.619940e-01
1.683760e-01
1.754530e-01
1.832240e-01
1.524140e-01
1.577600e-01
1.637610e-01
1.704160e-01
1.777260e-01
1.921020e-01
2.014880e-01
2.121190e-01
2.239970e-01
2.371210e-01
1.904120e-01
1.992870e-01
2.093770e-01
2.206830e-01
2.332050e-01
1.874520e-01
1.958110e-01
2.053460e-01
2.160560e-01
2.279420e-01
1.832240e-01
1.910610e-01
2.000250e-01
2.101160e-01
2.213320e-01
1.777260e-01
1.850360e-01
1.934150e-01
2.028610e-01
2.133760e-01
2.371210e-01
2.499760e-01
2.649520e-01
2.820480e-01
3.012630e-01
2.332050e-01
2.453170e-01
2.596010e-01
2.760570e-01
2.946840e-01
2.279420e-01
2.392830e-01
2.528090e-01
2.685220e-01
2.864220e-01
2.213320e-01
2.318730e-01
2.445770e-01
2.594450e-01
2.764780e-01
2.133760e-01
2.230870e-01
2.349040e-01
2.488250e-01
2.648510e-01
3.012630e-01
3.198660e-01
3.414720e-01
3.660810e-01
3.936920e-01
2.946840e-01
3.121850e-01
3.329900e-01
3.570970e-01
3.845080e-01
2.864220e-01
3.026270e-01
3.224190e-01
3.457970e-01
3.727620e-01
2.764780e-01
2.911930e-01
3.097610e-01
3.321810e-01
3.584540e-01
2.648510e-01
2.778820e-01
2.950150e-01
3.162490e-01
3.415850e-01
3.936920e-01
4.241100e-01
4.565670e-01
4.910650e-01
5.276030e-01
3.845080e-01
4.140160e-01
4.459690e-01
4.803660e-01
5.172070e-01
3.727620e-01
4.008030e-01
4.317050e-01
4.654690e-01
5.020940e-01
3.584540e-01
3.844690e-01
4.137760e-01
4.463740e-01
4.822640e-01
3.415850e-01
3.650160e-01
3.921810e-01
4.230820e-01
4.577170e-01
5.276030e-01
5.772320e-01
6.251480e-01
6.713500e-01
7.158390e-01
5.172070e-01
5.686220e-01
6.181570e-01
6.658110e-01
7.115850e-01
5.020940e-01
5.545720e-01
6.047620e-01
6.526650e-01
6.982810e-01
4.822640e-01
5.350820e-01
5.849650e-01
6.319130e-01
6.759270e-01
4.577170e-01
5.101510e-01
5.587640e-01
6.035550e-01
6.445230e-01
7.158390e-01
7.744320e-01
8.263210e-01
8.715050e-01
9.099840e-01
7.115850e-01
7.752910e-01
8.316010e-01
8.805140e-01
9.220300e-01
6.982810e-01
7.658850e-01
8.254830e-01
8.770740e-01
9.206590e-01
6.759270e-01
7.462140e-01
8.079670e-01
8.611860e-01
9.058710e-01
6.445230e-01
7.162770e-01
7.790520e-01
8.328480e-01
8.776670e-01
9.099840e-01
9.333760e-01
9.478800e-01
9.534980e-01
9.502290e-01
9.220300e-01
9.488960e-01
9.670180e-01
9.763970e-01
9.770330e-01
9.206590e-01
9.501210e-01
9.714310e-01
9.845890e-01
9.895950e-01
9.058710e-01
9.370510e-01
9.611190e-01
9.780740e-01
9.879170e-01
8.776670e-01
9.096870e-01
9.360820e-01
9.568530e-01
9.719980e-01
9.502290e-01
9.137350e-01
8.600520e-01
7.891820e-01
7.011220e-01
9.770330e-01
9.434420e-01
8.963010e-01
8.356110e-01
7.613700e-01
9.895950e-01
9.579670e-01
9.163850e-01
8.648510e-01
8.033630e-01
9.879170e-01
9.573100e-01
9.203050e-01
8.769020e-01
8.271020e-01
9.719980e-01
9.414710e-01
9.080590e-01
8.717640e-01
8.325860e-01
7.011220e-01
5.953750e-01
4.919440e-01
3.908310e-01
2.920340e-01
7.613700e-01
6.614500e-01
5.593370e-01
4.550290e-01
3.485280e-01
8.033630e-01
7.113460e-01
6.131850e-01
5.088780e-01
3.984270e-01
8.271020e-01
7.450630e-01
6.534880e-01
5.523780e-01
4.417310e-01
8.325860e-01
7.626000e-01
6.802470e-01
5.855280e-01
4.784420e-01
2.920340e-01
2.288240e-01
1.807530e-01
1.478240e-01
1.300340e-01
3.485280e-01
2.793820e-01
2.249900e-01
1.853530e-01
1.604680e-01
3.984270e-01
3.258250e-01
2.670020e-01
2.219570e-01
1.906910e-01
4.417310e-01
3.681530e-01
3.067890e-01
2.576380e-01
2.207010e-01
4.784420e-01
4.063660e-01
3.443500e-01
2.923950e-01
2.504990e-01
1.300340e-01
1.162600e-01
1.086210e-01
1.071190e-01
1.117540e-01
1.604680e-01
1.408330e-01
1.286780e-01
1.240030e-01
1.268090e-01
1.906910e-01
1.654950e-01
1.488300e-01
1.406930e-01
1.410860e-01
2.207010e-01
1.902460e-01
1.690750e-01
1.571880e-01
1.545850e-01
2.504990e-01
2.150860e-01
1.894160e-01
1.734890e-01
1.673050e-01
1.117540e-01
1.137150e-01
1.139640e-01
1.125010e-01
1.093260e-01
1.268090e-01
1.280900e-01
1.274990e-01
1.250340e-01
1.206960e-01
1.410860e-01
1.413140e-01
1.396320e-01
1.360410e-01
1.305410e-01
1.545850e-01
1.533850e-01
1.503640e-01
1.455230e-01
1.388620e-01
1.673050e-01
1.643030e-01
1.596950e-01
1.534790e-01
1.456580e-01
1.093260e-01
1.061860e-01
1.026580e-01
9.874420e-02
9.444300e-02
1.206960e-01
1.164990e-01
1.122490e-01
1.079460e-01
1.035900e-01
1.305410e-01
1.252770e-01
1.203070e-01
1.156310e-01
1.112480e-01
1.388620e-01
1.325210e-01
1.268340e-01
1.218000e-01
1.174190e-01
1.456580e-01
1.382310e-01
1.318290e-01
1.264530e-01
1.221010e-01
8.939170e-02
9.307080e-02
9.645350e-02
9.953990e-02
1.023300e-01
8.740010e-02
9.081630e-02
9.391750e-02
9.670390e-02
9.917530e-02
8.530680e-02
8.845780e-02
9.128840e-02
9.379880e-02
9.598880e-02
8.311190e-02
8.599530e-02
8.856620e-02
9.082460e-02
9.277050e-02
8.081530e-02
8.342890e-02
8.575090e-02
8.778130e-02
8.952020e-02
1.023300e-01
1.049220e-01
1.072030e-01
1.091730e-01
1.108320e-01
9.917530e-02