<?xml version="1.0"?>
<VTKFile type="UnstructuredGrid" version="0.1" byte_order="LittleEndian" compressor="vtkZLibDataCompressor">
<UnstructuredGrid>
<Piece NumberOfPoints="10000" NumberOfCells="6400">
<Points>
<DataArray type="Float32" NumberOfComponents="3" format="ascii">
-3.360000e+00 0.000000e+00 0.000000e+00
-3.276000e+00 0.000000e+00 0.000000e+00
-3.192000e+00 0.000000e+00 0.000000e+00
-3.108000e+00 0.000000e+00 0.000000e+00
-3.024000e+00 0.000000e+00 0.000000e+00
-3.360000e+00 6.412500e-02 0.000000e+00
-3.276000e+00 6.412500e-02 0.000000e+00
-3.192000e+00 6.412500e-02 0.000000e+00
-3.108000e+00 6.412500e-02 0.000000e+00
-3.024000e+00 6.412500e-02 0.000000e+00
-3.360000e+00 1.282500e-01 0.000000e+00
-3.276000e+00 1.282500e-01 0.000000e+00
-3.192000e+00 1.282500e-01 0.000000e+00
-3.108000e+00 1.282500e-01 0.000000e+00
-3.024000e+00 1.282500e-01 0.000000e+00
-3.360000e+00 1.923750e-01 0.000000e+00
-3.276000e+00 1.923750e-01 0.000000e+00
-3.192000e+00 1.923750e-01 0.000000e+00
-3.108000e+00 1.923750e-01 0.000000e+00
-3.024000e+00 1.923750e-01 0.000000e+00
-3.360000e+00 2.565000e-01 0.000000e+00
-3.276000e+00 2.565000e-01 0.000000e+00
-3.192000e+00 2.565000e-01 0.000000e+00
-3.108000e+00 2.565000e-01 0.000000e+00
-3.024000e+00 2.565000e-01 0.000000e+00
-3.024000e+00 0.000000e+00 0.000000e+00
-2.940000e+00 0.000000e+00 0.000000e+00
-2.856000e+00 0.000000e+00 0.000000e+00
-2.772000e+00 0.000000e+00 0.000000e+00
-2.688000e+00 0.000000e+00 0.000000e+00
-3.024000e+00 6.412500e-02 0.000000e+00
-2.940000e+00 6.412500e-02 0.000000e+00
-2.856000e+00 6.412500e-02 0.000000e+00
-2.772000e+00 6.412500e-02 0.000000e+00
-2.688000e+00 6.412500e-02 0.000000e+00
-3.024000e+00 1.282500e-01 0.000000e+00
-2.940000e+00 1.282500e-01 0.000000e+00
-2.856000e+00 1.282500e-01 0.000000e+00
-2.772000e+00 1.282500e-01 0.000000e+00
-2.688000e+00 1.282500e-01 0.000000e+00
-3.024000e+00 1.923750e-01 0.000000e+00
-2.940000e+00 1.923750e-01 0.000000e+00
-2.856000e+00 1.923750e-01 0.000000e+00
-2.772000e+00 1.923750e-01 0.000000e+00
-2.688000e+00 1.923750e-01 0.000000e+00
-3.024000e+00 2.565000e-01 0.000000e+00
-2.940000e+00 2.565000e-01 0.000000e+00
-2.856000e+00 2.565000e-01 0.000000e+00
-2.772000e+00 2.565000e-01 0.000000e+00
-2.688000e+00 2.565000e-01 0.000000e+00
-2.688000e+00 0.000000e+00 0.000000e+00
-2.604000e+00 0.000000e+00 0.000000e+00
-2.520000e+00 0.000000e+00 0.000000e+00
-2.436000e+00 0.000000e+00 0.000000e+00
-2.352000e+00 0.000000e+00 0.000000e+00
-2.688000e+00 6.412500e-02 0.000000e+00
-2.604000e+00 6.412500e-02 0.000000e+00
-2.520000e+00 6.412500e-02 0.000000e+00
-2.436000e+00 6.412500e-02 0.000000e+00
-2.352000e+00 6.412500e-02 0.000000e+00
-2.688000e+00 1.282500e-01 0.000000e+00
-2.604000e+00 1.282500e-01 0.000000e+00
-2.520000e+00 1.282500e-01 0.000000e+00
-2.436000e+00 1.282500e-01 0.000000e+00
-2.352000e+00 1.282500e-01 0.000000e+00
-2.688000e+00 1.923750e-01 0.000000e+00
-2.604000e+00 1.923750e-01 0.000000e+00
-2.520000e+00 1.923750e-01 0.000000e+00
-2.436000e+00 1.923750e-01 0.000000e+00
-2.352000e+00 1.923750e-01 0.000000e+00
-2.688000e+00 2.565000e-01 0.000000e+00
-2.604000e+00 2.565000e-01 0.000000e+00
-2.520000e+00 2.565000e-01 0.000000e+00
-2.436000e+00 2.565000e-01 0.000000e+00
-2.352000e+00 2.565000e-01 0.000000e+00
-2.352000e+00 0.000000e+00 0.000000e+00
-2.268000e+00 0.000000e+00 0.000000e+00
-2.184000e+00 0.000000e+00 0.000000e+00
-2.100000e+00 0.000000e+00 0.000000e+00
-2.016000e+00 0.000000e+00 0.000000e+00
-2.352000e+00 6.412500e-02 0.000000e+00
-2.268000e+00 6.412500e-02 0.000000e+00
-2.184000e+00 6.412500e-02 0.000000e+00
-2.100000e+00 6.412500e-02 0.000000e+00
-2.016000e+00 6.412500e-02 0.000000e+00
-2.352000e+00 1.282500e-01 0.000000e+00
-2.268000e+00 1.282500e-01 0.000000e+00
-2.184000e+00 1.282500e-01 0.000000e+00
-2.100000e+00 1.282500e-01 0.000000e+00
-2.016000e+00 1.282500e-01 0.000000e+00
-2.352000e+00 1.923750e-01 0.000000e+00
-2.268000e+00 1.923750e-01 0.000000e+00
-2.184000e+00 1.923750e-01 0.000000e+00
-2.100000e+00 1.923750e-01 0.000000e+00
-2.016000e+00 1.923750e-01 0.000000e+00
-2.352000e+00 2.565000e-01 0.000000e+00
-2.268000e+00 2.565000e-01 0.000000e+00
-2.184000e+00 2.565000e-01 0.000000e+00
-2.100000e+00 2.565000e-01 0.000000e+00
-2.016000e+00 2.565000e-01 0.000000e+00
-2.016000e+00 0.000000e+00 0.000000e+00
-1.932000e+00 0.000000e+00 0.000000e+00
-1.848000e+00 0.000000e+00 0.000000e+00
-1.764000e+00 0.000000e+00 0.000000e+00
-1.680000e+00 0.000000e+00 0.000000e+00
-2.016000e+00 6.412500e-02 0.000000e+00
-1.932000e+00 6.412500e-02 0.000000e+00
-1.848000e+00 6.412500e-02 0.000000e+00
-1.764000e+00 6.412500e-02 0.000000e+00
-1.680000e+00 6.412500e-02 0.000000e+00
-2.016000e+00 1.282500e-01 0.000000e+00
-1.932000e+00 1.282500e-01 0.000000e+00
-1.848000e+00 1.282500e-01 0.000000e+00
-1.764000e+00 1.282500e-01 0.000000e+00
-1.680000e+00 1.282500e-01 0.000000e+00
-2.016000e+00 1.923750e-01 0.000000e+00
-1.932000e+00 1.923750e-01 0.000000e+00
-1.848000e+00 1.923750e-01 0.000000e+00
-1.764000e+00 1.923750e-01 0.000000e+00
-1.680000e+00 1.923750e-01 0.000000e+00
-2.016000e+00 2.565000e-01 0.000000e+00
-1.932000e+00 2.565000e-01 0.000000e+00
-1.848000e+00 2.565000e-01 0.000000e+00
-1.764000e+00 2.565000e-01 0.000000e+00
-1.680000e+00 2.565000e-01 0.000000e+00
-1.680000e+00 0.000000e+00 0.000000e+00
-1.596000e+00 0.000000e+00 0.000000e+00
-1.512000e+00 0.000000e+00 0.000000e+00
-1.428000e+00 0.000000e+00 0.000000e+00
-1.344000e+00 0.000000e+00 0.000000e+00
-1.680000e+00 6.412500e-02 0.000000e+00
-1.596000e+00 6.412500e-02 0.000000e+00
-1.512000e+00 6.412500e-02 0.000000e+00
-1.428000e+00 6.412500e-02 0.000000e+00
-1.344000e+00 6.412500e-02 0.000000e+00
-1.680000e+00 1.282500e-01 0.000000e+00
-1.596000e+00 1.282500e-01 0.000000e+00
-1.512000e+00 1.282500e-01 0.000000e+00
-1.428000e+00 1.282500e-01 0.000000e+00
-1.344000e+00 1.282500e-01 0.000000e+00
-1.680000e+00 1.923750e-01 0.000000e+00
-1.596000e+00 1.923750e-01 0.000000e+00
-1.512000e+00 1.923750e-01 0.000000e+00
-1.428000e+00 1.923750e-01 0.000000e+00
-1.344000e+00 1.923750e-01 0.000000e+00
-1.680000e+00 2.565000e-01 0.000000e+00
-1.596000e+00 2.565000e-01 0.000000e+00
-1.512000e+00 2.565000e-01 0.000000e+00
-1.428000e+00 2.565000e-01 0.000000e+00
-1.344000e+00 2.565000e-01 0.000000e+00
-1.344000e+00 0.000000e+00 0.000000e+00
-1.260000e+00 0.000000e+00 0.000000e+00
-1.176000e+00 0.000000e+00 0.000000e+00
-1.092000e+00 0.000000e+00 0.000000e+00
-1.008000e+00 0.000000e+00 0.000000e+00
-1.344000e+00 6.412500e-02 0.000000e+00
-1.260000e+00 6.412500e-02 0.000000e+00
-1.176000e+00 6.412500e-02 0.000000e+00
-1.092000e+00 6.412500e-02 0.000000e+00
-1.008000e+00 6.412500e-02 0.000000e+00
-1.344000e+00 1.282500e-01 0.000000e+00
-1.260000e+00 1.282500e-01 0.000000e+00
-1.176000e+00 1.282500e-01 0.000000e+00
-1.092000e+00 1.282500e-01 0.000000e+00
-1.008000e+00 1.282500e-01 0.000000e+00
-1.344000e+00 1.923750e-01 0.000000e+00
-1.260000e+00 1.923750e-01 0.000000e+00
-1.176000e+00 1.923750e-01 0.000000e+00
-1.092000e+00 1.923750e-01 0.000000e+00
-1.008000e+00 1.923750e-01 0.000000e+00
-1.344000e+00 2.565000e-01 0.000000e+00
-1.260000e+00 2.565000e-01 0.000000e+00
-1.176000e+00 2.565000e-01 0.000000e+00
-1.092000e+00 2.565000e-01 0.000000e+00
-1.008000e+00 2.565000e-01 0.000000e+00
-1.008000e+00 0.000000e+00 0.000000e+00
-9.240000e-01 0.000000e+00 0.000000e+00
-8.400000e-01 0.000000e+00 0.000000e+00
-7.560000e-01 0.000000e+00 0.000000e+00
-6.720000e-01 0.000000e+00 0.000000e+00
-1.008000e+00 6.412500e-02 0.000000e+00
-9.240000e-01 6.412500e-02 0.000000e+00
-8.400000e-01 6.412500e-02 0.000000e+00
-7.560000e-01 6.412500e-02 0.000000e+00
-6.720000e-01 6.412500e-02 0.000000e+00
-1.008000e+00 1.282500e-01 0.000000e+00
-9.240000e-01 1.282500e-01 0.000000e+00
-8.400000e-01 1.282500e-01 0.000000e+00
-7.560000e-01 1.282500e-01 0.000000e+00
-6.720000e-01 1.282500e-01 0.000000e+00
-1.008000e+00 1.923750e-01 0.000000e+00
-9.240000e-01 1.923750e-01 0.000000e+00
-8.400000e-01 1.923750e-01 0.000000e+00
-7.560000e-01 1.923750e-01 0.000000e+00
-6.720000e-01 1.923750e-01 0.000000e+00
-1.008000e+00 2.565000e-01 0.000000e+00
-9.240000e-01 2.565000e-01 0.000000e+00
-8.400000e-01 2.565000e-01 0.000000e+00
-7.560000e-01 2.565000e-01 0.000000e+00
-6.720000e-01 2.565000e-01 0.000000e+00
-6.720000e-01 0.000000e+00 0.000000e+00
-5.880000e-01 0.000000e+00 0.000000e+00
-5.040000e-01 0.000000e+00 0.000000e+00
-4.200000e-01 0.000000e+00 0.000000e+00
-3.360000e-01 0.000000e+00 0.000000e+00
-6.720000e-01 6.412500e-02 0.000000e+00
-5.880000e-01 6.412500e-02 0.000000e+00
-5.040000e-01 6.412500e-02 0.000000e+00
-4.200000e-01 6.412500e-02 0.000000e+00
-3.360000e-01 6.412500e-02 0.000000e+00
-6.720000e-01 1.282500e-01 0.000000e+00
-5.880000e-01 1.282500e-01 0.000000e+00
-5.040000e-01 1.282500e-01 0.000000e+00
-4.200000e-01 1.282500e-01 0.000000e+00
-3.360000e-01 1.282500e-01 0.000000e+00
-6.720000e-01 1.923750e-01 0.000000e+00
-5.880000e-01 1.923750e-01 0.000000e+00
-5.040000e-01 1.923750e-01 0.000000e+00
-4.200000e-01 1.923750e-01 0.000000e+00
-3.360000e-01 1.923750e-01 0.000000e+00
-6.720000e-01 2.565000e-01 0.000000e+00
-5.880000e-01 2.565000e-01 0.000000e+00
-5.040000e-01 2.565000e-01 0.000000e+00
-4.200000e-01 2.565000e-01 0.000000e+00
-3.360000e-01 2.565000e-01 0.000000e+00
-3.360000e-01 0.000000e+00 0.000000e+00
-2.520000e-01 0.000000e+00 0.000000e+00
-1.680000e-01 0.000000e+00 0.000000e+00
-8.400000e-02 0.000000e+00 0.000000e+00
-4.440890e-16 0.000000e+00 0.000000e+00
-3.360000e-01 6.412500e-02 0.000000e+00
-2.520000e-01 6.412500e-02 0.000000e+00
-1.680000e-01 6.412500e-02 0.000000e+00
-8.400000e-02 6.412500e-02 0.000000e+00
-4.440890e-16 6.412500e-02 0.000000e+00
-3.360000e-01 1.282500e-01 0.000000e+00
-2.520000e-01 1.282500e-01 0.000000e+00
-1.680000e-01 1.282500e-01 0.000000e+00
-8.400000e-02 1.282500e-01 0.000000e+00
-4.440890e-16 1.282500e-01 0.000000e+00
-3.360000e-01 1.923750e-01 0.000000e+00
-2.520000e-01 1.923750e-01 0.000000e+00
-1.680000e-01 1.923750e-01 0.000000e+00
[...]
<PointData>
<DataArray type="Float32" Name="V1" format="ascii">
0.000000e+00
0.000000e+00
0.000000e+00
0.000000e+00
0.000000e+00
6.347820e-02
5.965570e-02
5.536820e-02
5.061570e-02
4.539810e-02
1.013490e-01
9.776660e-02
9.294460e-02
8.688250e-02
7.958030e-02
1.136110e-01
1.143330e-01
1.127290e-01
1.088000e-01
1.025470e-01
1.002660e-01
1.093540e-01
1.147220e-01
1.163700e-01
1.142970e-01
0.000000e+00
0.000000e+00
0.000000e+00
0.000000e+00
0.000000e+00
4.539810e-02
3.974150e-02
3.549930e-02
3.267160e-02
3.125840e-02
7.958030e-02
7.137930e-02
6.507950e-02
6.068080e-02
5.818340e-02
1.025470e-01
9.491350e-02
8.874050e-02
8.402760e-02
8.077500e-02
1.142970e-01
1.103440e-01
1.064820e-01
1.027120e-01
9.903340e-02
0.000000e+00
0.000000e+00
0.000000e+00
0.000000e+00
0.000000e+00
3.125840e-02
3.007060e-02
2.917830e-02
2.858150e-02
2.828020e-02
5.818340e-02
5.618160e-02
5.473280e-02
5.383700e-02
5.349400e-02
8.077500e-02
7.833310e-02
7.666360e-02
7.576640e-02
7.564160e-02
9.903340e-02
9.652510e-02
9.497060e-02
9.436990e-02
9.472300e-02
0.000000e+00
0.000000e+00
0.000000e+00
0.000000e+00
0.000000e+00
2.828020e-02
2.811420e-02
2.825520e-02
2.870320e-02
2.945830e-02
5.349400e-02
5.340980e-02
5.383440e-02
5.476780e-02
5.621010e-02
7.564160e-02
7.588690e-02
7.673760e-02
7.819380e-02
8.025540e-02
9.472300e-02
9.554540e-02
9.696480e-02
9.898110e-02
1.015940e-01
0.000000e+00
0.000000e+00
0.000000e+00
0.000000e+00
0.000000e+00
2.945830e-02
3.038130e-02
3.153700e-02
3.292560e-02
3.454690e-02
5.621010e-02
5.796360e-02
6.013810e-02
6.273370e-02
6.575040e-02
8.025540e-02
8.274690e-02
8.580330e-02
8.942450e-02
9.361060e-02
1.015940e-01
1.047310e-01
1.085320e-01
1.129980e-01
1.181270e-01
0.000000e+00
0.000000e+00
0.000000e+00
0.000000e+00
0.000000e+00
3.454690e-02
3.639180e-02
3.863150e-02
4.126600e-02
4.429520e-02
6.575040e-02
6.916110e-02
7.324620e-02
7.800570e-02
8.343960e-02
9.361060e-02
9.830780e-02
1.038440e-01
1.102190e-01
1.174330e-01
1.181270e-01
1.238320e-01
1.304250e-01
1.379060e-01
1.462760e-01
0.000000e+00
0.000000e+00
0.000000e+00
0.000000e+00
0.000000e+00
4.429520e-02
4.760370e-02
5.157660e-02
5.621400e-02
6.151570e-02
8.343960e-02
8.935420e-02
9.638370e-02
1.045280e-01
1.137870e-01
1.174330e-01
1.252520e-01
1.344210e-01
1.449420e-01
1.568150e-01
1.462760e-01
1.552960e-01
1.656890e-01
1.774570e-01
1.905980e-01
0.000000e+00
0.000000e+00
0.000000e+00
0.000000e+00
0.000000e+00
6.151570e-02
6.703310e-02
7.374040e-02
8.163790e-02
9.072540e-02
1.137870e-01
1.234070e-01
1.349760e-01
1.484930e-01
1.639600e-01
1.568150e-01
1.691220e-01
1.837050e-01
2.005660e-01
2.197020e-01
1.905980e-01
2.041770e-01
2.199300e-01
2.378560e-01
2.579540e-01
0.000000e+00
0.000000e+00
0.000000e+00
0.000000e+00
0.000000e+00
9.072540e-02
9.975990e-02
1.106020e-01
1.232510e-01
1.377080e-01
1.639600e-01
1.793750e-01
1.976840e-01
2.188880e-01
2.429870e-01
2.197020e-01
2.388440e-01
2.612470e-01
2.869110e-01
3.158350e-01
2.579540e-01
2.781690e-01
3.012900e-01
3.273180e-01
3.562530e-01
0.000000e+00
0.000000e+00
0.000000e+00
0.000000e+00
0.000000e+00
1.377080e-01
1.526460e-01
1.689430e-01
1.866000e-01
2.056150e-01
2.429870e-01
2.680650e-01
2.953050e-01
3.247080e-01
3.562750e-01
3.158350e-01
3.462550e-01
3.790850e-01
4.143260e-01
4.519780e-01
3.562530e-01
3.872170e-01
4.202830e-01
4.554530e-01
4.927250e-01
0.000000e+00
0.000000e+00
0.000000e+00
0.000000e+00
0.000000e+00
2.056150e-01
2.282500e-01
2.491010e-01
2.681700e-01
2.854570e-01
3.562750e-01
3.940490e-01
4.292720e-01
4.619450e-01
4.920670e-01
4.519780e-01
4.973970e-01
5.405120e-01
5.813240e-01
6.198310e-01
4.927250e-01
5.382950e-01
5.828230e-01
6.263070e-01
6.687490e-01
0.000000e+00
0.000000e+00
0.000000e+00
0.000000e+00
0.000000e+00
2.854570e-01
3.067630e-01
3.219700e-01
3.310780e-01
3.340870e-01
4.920670e-01
5.292080e-01
5.572880e-01
5.763060e-01
5.862640e-01
6.198310e-01
6.673360e-01
7.059550e-01
7.356860e-01
7.565310e-01
6.687490e-01
7.211470e-01
7.679690e-01
8.092160e-01
8.448880e-01
0.000000e+00
0.000000e+00
0.000000e+00
0.000000e+00
0.000000e+00
3.340870e-01
3.271380e-01
3.140960e-01
2.949600e-01
2.697290e-01
5.862640e-01
5.810510e-01
5.656350e-01
5.400150e-01
5.041920e-01
7.565310e-01
7.617380e-01
7.546160e-01
7.351660e-01
7.033860e-01
8.448880e-01
8.692000e-01
8.810410e-01
8.804130e-01
8.673130e-01
0.000000e+00
0.000000e+00
0.000000e+00
0.000000e+00
0.000000e+00
2.697290e-01
2.288420e-01
1.907660e-01
1.555000e-01
1.230440e-01
5.041920e-01
4.404610e-01
3.779760e-01
3.167340e-01
2.567370e-01
7.033860e-01
6.348570e-01
5.616300e-01
4.837040e-01
4.010790e-01
8.673130e-01
8.120300e-01
7.417280e-01
6.564080e-01
5.560700e-01
0.000000e+00
0.000000e+00
0.000000e+00
0.000000e+00
0.000000e+00
1.230440e-01
9.751630e-02
7.308530e-02
4.975110e-02
2.751380e-02
2.567370e-01
2.058620e-01
1.574780e-01
1.115880e-01
6.818920e-02
4.010790e-01
3.250360e-01
2.531800e-01
1.855100e-01
1.220260e-01
5.560700e-01
4.550400e-01
3.601890e-01
2.715170e-01
1.890250e-01
0.000000e+00
0.000000e+00
0.000000e+00
0.000000e+00
0.000000e+00
2.751380e-02
1.348070e-02
2.269770e-03
-6.119070e-03
-1.168580e-02
6.818920e-02
4.091590e-02
1.940230e-02
3.648490e-03
-6.345500e-03
1.220260e-01
8.230540e-02
5.139750e-02
2.930270e-02
1.602090e-02
1.890250e-01
1.376490e-01
9.825550e-02
7.084350e-02
5.541340e-02
0.000000e+00
0.000000e+00
0.000000e+00
0.000000e+00
0.000000e+00
-1.168580e-02
-1.575680e-02
-1.620100e-02
-1.301860e-02
-6.209460e-03
-6.345500e-03
-1.374380e-02
-1.494630e-02
-9.953130e-03
1.235740e-03
1.602090e-02
6.039050e-03
3.764220e-03
9.196400e-03
2.233560e-02
5.541340e-02
4.359160e-02
3.993050e-02
4.443000e-02
5.709010e-02
0.000000e+00
0.000000e+00
0.000000e+00
0.000000e+00
0.000000e+00
-6.209460e-03
-2.211180e-03
1.517620e-03
4.976950e-03
8.166800e-03
1.235740e-03
7.897310e-03
1.391070e-02
1.927590e-02
2.399290e-02
2.233560e-02
3.032550e-02
3.717920e-02
4.289690e-02
4.747830e-02
5.709010e-02
6.507330e-02
7.132320e-02
7.583980e-02
7.862300e-02
0.000000e+00
0.000000e+00
0.000000e+00
0.000000e+00
0.000000e+00
8.166800e-03
1.081400e-02
1.267370e-02
1.374570e-02
1.403020e-02
2.399290e-02
2.785960e-02
3.046440e-02
3.180710e-02
3.188780e-02
4.747830e-02
5.113690e-02
5.337210e-02
5.418410e-02
5.357280e-02
7.862300e-02
8.064570e-02
8.139690e-02
8.087670e-02
7.908500e-02
0.000000e+00
0.000000e+00
0.000000e+00
0.000000e+00
0.000000e+00
1.403020e-02
1.486120e-02
1.439680e-02
1.263700e-02
9.581710e-03
3.188780e-02
3.262330e-02
3.156310e-02
2.870720e-02
2.405560e-02
5.357280e-02
5.328630e-02
5.149900e-02
4.821070e-02
4.342160e-02
7.908500e-02
7.685020e-02
7.420430e-02
7.114750e-02
6.767970e-02
1.002660e-01
1.093540e-01
1.147220e-01
1.163700e-01
1.142970e-01
9.945850e-02
1.077440e-01
1.136610e-01
1.172090e-01
1.183870e-01
9.848610e-02
1.057910e-01
1.117750e-01
1.164390e-01
1.197820e-01
9.734850e-02
1.034930e-01
1.090640e-01
1.140610e-01
1.184850e-01
9.604590e-02
1.008510e-01
1.055270e-01
1.100750e-01
1.144940e-01
1.142970e-01
1.103440e-01
1.064820e-01
1.027120e-01
9.903340e-02
1.183870e-01
1.172620e-01
1.156300e-01
1.134900e-01
1.108440e-01
1.197820e-01
1.208270e-01
1.209840e-01
1.202520e-01
1.186310e-01
1.184850e-01
1.210400e-01
1.225440e-01
1.229960e-01
1.223970e-01
1.144940e-01
1.179000e-01
1.203100e-01
1.217240e-01
1.221400e-01
9.903340e-02
9.652510e-02
9.497060e-02
9.436990e-02
9.472300e-02
1.108440e-01
1.088480e-01
1.077180e-01
1.074550e-01
1.080600e-01
1.186310e-01
1.172500e-01
1.166050e-01
1.166970e-01
1.175270e-01
1.223970e-01
1.217310e-01
1.216310e-01
1.220950e-01
1.231240e-01
1.221400e-01
1.222930e-01
1.227950e-01
1.236490e-01
1.248520e-01
9.472300e-02
9.554540e-02
9.696480e-02
9.898110e-02
1.015940e-01
1.080600e-01
1.092170e-01
1.109760e-01
1.133350e-01
1.162940e-01
1.175270e-01
1.189440e-01
1.209470e-01
1.235360e-01
1.267110e-01
1.231240e-01
1.247260e-01
1.268800e-01
1.295860e-01
1.328430e-01
1.248520e-01
1.265640e-01
1.287740e-01
1.314830e-01
1.346910e-01
1.015940e-01
1.047310e-01
1.085320e-01
1.129980e-01
1.181270e-01
1.162940e-01
1.197660e-01
1.239180e-01
1.287510e-01
1.342650e-01
1.267110e-01
1.303750e-01
1.347140e-01
1.397270e-01
1.454140e-01
1.328430e-01
1.365600e-01
1.409210e-01
1.459260e-01
1.515760e-01
1.346910e-01
1.383190e-01
1.425380e-01
1.473480e-01
1.527490e-01
1.181270e-01
1.238320e-01
1.304250e-01
1.379060e-01
1.462760e-01
1.342650e-01
1.403490e-01
1.473100e-01
1.551480e-01
1.638620e-01
1.454140e-01
1.516500e-01
1.587330e-01
1.666640e-01
1.754430e-01
1.515760e-01
1.577340e-01
1.646930e-01
1.724550e-01
1.810170e-01
1.527490e-01
1.586010e-01
1.651920e-01
1.725200e-01
1.805870e-01
1.462760e-01
1.552960e-01
1.656890e-01
1.774570e-01
1.905980e-01
1.638620e-01
1.731450e-01
1.837600e-01
1.957050e-01
2.089820e-01
1.754430e-01
1.847130e-01
1.952570e-01
2.070740e-01
2.201660e-01
1.810170e-01
1.899980e-01
2.001810e-01
2.115640e-01
2.241500e-01
1.805870e-01
1.890020e-01
1.985310e-01
2.091750e-01
2.209330e-01
1.905980e-01
2.041770e-01
2.199300e-01
2.378560e-01
2.579540e-01
2.089820e-01
2.225020e-01
2.381550e-01
2.559420e-01
2.758610e-01
2.201660e-01
2.333340e-01
2.485910e-01
2.659370e-01
2.853710e-01
2.241500e-01
2.366740e-01
2.512380e-01
2.678420e-01
2.864850e-01
2.209330e-01
2.325220e-01
2.460960e-01
2.616560e-01
2.792020e-01
2.579540e-01
2.781690e-01
3.012900e-01
3.273180e-01
3.562530e-01
2.758610e-01
2.955190e-01
3.181890e-01
3.438730e-01
3.725710e-01
2.853710e-01
3.041680e-01
3.261070e-01
3.511890e-01
3.794140e-01
2.864850e-01
3.041170e-01
3.250440e-01
3.492660e-01
3.767830e-01
2.792020e-01
2.953660e-01
3.150000e-01
3.381040e-01
3.646790e-01
3.562530e-01
3.872170e-01
4.202830e-01
4.554530e-01
4.927250e-01
3.725710e-01
4.027750e-01
4.355470e-01
4.708860e-01
5.087930e-01
3.794140e-01
4.085510e-01
4.407100e-01
4.758920e-01
5.140950e-01
3.767830e-01
4.045450e-01
4.357730e-01
4.704680e-01
5.086310e-01
3.646790e-01
3.907560e-01
4.207350e-01
4.546170e-01
4.923990e-01
4.927250e-01
5.382950e-01
5.828230e-01
6.263070e-01
6.687490e-01
5.087930e-01
5.556460e-01
6.018770e-01
6.474860e-01
6.924740e-01
5.140950e-01
5.617290e-01
6.091300e-01
6.562980e-01
7.032330e-01
5.086310e-01
5.565450e-01
6.045820e-01
6.527410e-01
7.010230e-01
4.923990e-01
5.400940e-01
5.882330e-01
6.368170e-01
6.858460e-01
6.687490e-01
7.211470e-01
7.679690e-01
8.092160e-01
8.448880e-01
6.924740e-01
7.509150e-01
8.037310e-01
8.509230e-01
8.924890e-01
7.032330e-01
7.671380e-01
8.253400e-01
8.778400e-01
9.246370e-01
7.010230e-01
7.698150e-01
8.327960e-01
8.899680e-01
9.413300e-01
6.858460e-01
7.589460e-01
8.260990e-01
8.873070e-01
9.425700e-01
8.448880e-01
8.692000e-01
8.810410e-01
8.804130e-01
8.673130e-01
8.924890e-01
9.266340e-01
9.495150e-01
9.611310e-01
9.614820e-01
9.246370e-01
9.668690e-01
9.987600e-01
1.020310e+00
1.031520e+00
9.413300e-01
9.899040e-01
1.028780e+00
1.057950e+00
1.077420e+00
9.425700e-01
9.957390e-01
1.039570e+00
1.074050e+00
1.099190e+00
8.673130e-01
8.120300e-01
7.417280e-01
6.564080e-01
5.560700e-01
9.614820e-01
9.239630e-01
8.692670e-01
7.973920e-01
7.083380e-01
1.031520e+00
1.006980e+00
9.654470e-01
9.069180e-01
8.313950e-01
1.077420e+00
1.061080e+00
1.030270e+00
9.849880e-01
9.252400e-01
1.099190e+00
1.086260e+00
1.063730e+00
1.031600e+00
9.898730e-01
5.560700e-01
4.550400e-01
3.601890e-01
2.715170e-01
1.890250e-01
7.083380e-01
5.952850e-01
4.850280e-01
3.775690e-01
2.729060e-01
8.313950e-01
7.173230e-01
6.009950e-01
4.824110e-01
3.615700e-01
9.252400e-01
8.211530e-01
7.080880e-01
5.860430e-01
4.550180e-01
9.898730e-01
9.067770e-01
8.063070e-01
6.884650e-01
5.532500e-01
1.890250e-01
1.376490e-01
9.825550e-02
7.084350e-02
5.541340e-02
2.729060e-01
2.099060e-01
1.603600e-01
1.242690e-01
1.016320e-01
3.615700e-01
2.871330e-01
2.272130e-01
1.818100e-01
1.509230e-01
4.550180e-01
3.693330e-01
2.988150e-01
2.434660e-01
2.032850e-01
5.532500e-01
4.565030e-01
3.751660e-01
3.092380e-01
2.587180e-01
5.541340e-02
4.359160e-02
3.993050e-02
4.443000e-02
5.709010e-02
1.016320e-01
8.279950e-02
7.420880e-02
7.585990e-02
8.775290e-02
1.509230e-01
1.243010e-01
1.097710e-01
1.073330e-01
1.169850e-01
2.032850e-01
1.680970e-01
1.466180e-01
1.388480e-01
1.447860e-01
2.587180e-01
2.141870e-01
1.847500e-01
1.704070e-01
1.711570e-01
5.709010e-02
6.507330e-02
7.132320e-02
7.583980e-02
7.862300e-02
8.775290e-02
9.559730e-02
1.011020e-01
1.042680e-01
1.050950e-01
1.169850e-01
1.238380e-01
1.279920e-01
1.294470e-01
1.282030e-01
1.447860e-01
1.497960e-01
1.519920e-01
1.513760e-01
1.479460e-01
1.711570e-01
1.734700e-01
1.731030e-01
1.700540e-01
1.643250e-01
7.862300e-02
8.064570e-02
8.139690e-02
8.087670e-02
7.908500e-02
1.050950e-01
1.053430e-01
1.044820e-01
1.025130e-01
9.943550e-02
1.282030e-01
1.265610e-01
1.240470e-01
1.206580e-01
1.163970e-01
1.479460e-01
1.443010e-01
1.400900e-01
1.353130e-01
1.299690e-01
1.643250e-01
1.585630e-01
1.526130e-01
1.464760e-01
1.401520e-01
7.908500e-02
7.685020e-02
7.420430e-02
7.114750e-02
6.767970e-02
9.943550e-02
9.627740e-02
9.285110e-02
8.915670e-02
8.519410e-02
1.163970e-01
1.123870e-01
1.082510e-01
1.039880e-01
9.959890e-02
1.299690e-01
1.251790e-01
1.204030e-01
1.156410e-01
1.108940e-01
1.401520e-01
1.346530e-01
1.293080e-01
1.241170e-01
1.190790e-01
9.604590e-02
1.008510e-01
1.055270e-01
1.100750e-01
1.144940e-01
9.458900e-02
9.887040e-02
1.030750e-01
1.072030e-01
1.112550e-01
9.299440e-02
9.689330e-02
1.007030e-01
1.044230e-01
1.080530e-01
9.126190e-02
9.491970e-02
9.841040e-02
1.017340e-01
1.048900e-01
8.939170e-02
9.294950e-02
9.619770e-02
9.913610e-02
1.017650e-01
1.144940e-01
1.179000e-01
1.203100e-01
1.217240e-01
1.221400e-01
1.112550e-01
1.146390e-01
1.172480e-01
1.190840e-01
1.201450e-01
1.080530e-01
1.112740e-01
1.139290e-01
1.160190e-01
1.175450e-01
1.048900e-01
1.078060e-01
1.103530e-01
1.125300e-01
1.143390e-01
1.017650e-01
1.042350e-01
1.065190e-01
1.086170e-01
1.105280e-01
1.221400e-01
1.222930e-01
1.227950e-01
1.236490e-01
1.248520e-01
1.201450e-01
1.208880e-01
1.218600e-01
1.230590e-01
1.244860e-01
1.175450e-01
1.187520e-01
1.200980e-01
1.215810e-01
1.232020e-01
1.143390e-01
1.158850e-01
1.175100e-01
1.192140e-01
1.209980e-01
1.105280e-01
1.122860e-01
1.140970e-01
1.159590e-01
1.178750e-01
1.248520e-01
1.265640e-01
1.287740e-01
1.314830e-01
1.346910e-01
1.244860e-01
1.263200e-01
1.285970e-01
1.313170e-01
1.344820e-01
1.232020e-01
1.251410e-01
1.274720e-01
1.301930e-01
1.333060e-01
1.209980e-01
1.230280e-01
1.253990e-01
1.281110e-01
1.311630e-01
1.178750e-01
1.199800e-01
1.223780e-01
1.250690e-01
1.280540e-01
1.346910e-01
1.383190e-01
1.425380e-01
1.473480e-01
1.527490e-01
1.344820e-01
1.380290e-01
1.421240e-01
1.467690e-01
1.519630e-01
1.333060e-01
1.367630e-01
1.407270e-01
1.451980e-01
1.501770e-01
1.311630e-01
1.345220e-01
1.383460e-01
1.426360e-01
1.473910e-01
1.280540e-01
1.313060e-01
1.349810e-01
1.390810e-01
1.436050e-01
1.527490e-01
1.586010e-01
1.651920e-01
1.725200e-01
1.805870e-01
1.519630e-01
1.575560e-01
1.638480e-01
1.708390e-01
1.785300e-01
1.501770e-01
1.555020e-01
1.614860e-01
1.681300e-01
1.754330e-01
1.473910e-01
1.524400e-01
1.581070e-01
1.643920e-01
1.712960e-01
1.436050e-01
1.483700e-01
1.537100e-01
1.596270e-01
1.661190e-01
1.805870e-01
1.890020e-01
1.985310e-01
2.091750e-01
2.209330e-01
1.785300e-01
1.865110e-01
1.955590e-01
2.056740e-01
2.168560e-01
1.754330e-01
1.829640e-01
1.915100e-01
2.010700e-01
2.116440e-01
1.712960e-01
1.783630e-01
1.863850e-01
1.953620e-01
2.052940e-01
1.661190e-01
1.727050e-01
1.801830e-01
1.885500e-01
1.978090e-01
2.209330e-01
2.325220e-01
2.460960e-01
2.616560e-01
2.792020e-01
2.168560e-01
2.277830e-01
2.406690e-01
2.555140e-01
2.723190e-01
2.116440e-01
2.218740e-01
2.340090e-01
2.480470e-01
2.639890e-01
2.052940e-01
2.147950e-01
2.261150e-01
2.392540e-01
2.542130e-01
1.978090e-01
2.065450e-01
2.169880e-01
2.291360e-01
2.429910e-01
2.792020e-01
2.953660e-01
3.150000e-01
3.381040e-01
3.646790e-01
2.723190e-01
2.872990e-01
3.059840e-01
3.283740e-01
3.544700e-01
2.639890e-01
2.776950e-01
2.952620e-01
3.166910e-01
3.419810e-01
2.542130e-01
2.665560e-01
2.828360e-01
3.030550e-01
3.272110e-01
2.429910e-01
2.538800e-01
2.687050e-01
2.874650e-01
3.101590e-01
3.646790e-01
3.907560e-01
4.207350e-01
4.546170e-01
4.923990e-01
3.544700e-01
3.788990e-01
4.076810e-01
4.408180e-01
4.783090e-01
3.419810e-01
3.641330e-01
3.911790e-01
4.231200e-01
4.599550e-01
3.272110e-01
3.464580e-01
3.712280e-01
4.015210e-01
4.373370e-01
3.101590e-01
3.258740e-01
3.478290e-01
3.760220e-01
4.104550e-01
4.923990e-01
5.400940e-01
5.882330e-01
6.368170e-01
6.858460e-01
4.783090e-01
5.256240e-01
5.734610e-01
6.218220e-01
6.707050e-01
4.599550e-01
5.058770e-01
5.521240e-01
5.986950e-01
6.455910e-01
4.373370e-01
4.808530e-01
5.242200e-01
5.674370e-01
6.105040e-01
4.104550e-01
4.505530e-01
4.897500e-01
5.280470e-01
5.654430e-01
6.858460e-01
7.589460e-01
8.260990e-01
8.873070e-01
9.425700e-01
6.707050e-01
7.484150e-01
8.192560e-01
8.832290e-01
9.403320e-01
6.455910e-01
7.266130e-01
7.995620e-01
8.644390e-01
9.212440e-01
6.105040e-01
6.935380e-01
7.670160e-01
8.309390e-01
8.853050e-01
5.654430e-01
6.491910e-01
7.216190e-01
7.827270e-01
8.325160e-01
9.425700e-01
9.957390e-01
1.039570e+00
1.074050e+00
1.099190e+00
9.403320e-01
9.989830e-01
1.047850e+00
1.086940e+00
1.116260e+00
9.212440e-01
9.838600e-01
1.036700e+00
1.079760e+00
1.113040e+00
8.853050e-01
9.503700e-01
1.006100e+00
1.052490e+00
1.089540e+00
8.325160e-01
8.985120e-01
9.560500e-01
1.005130e+00
1.045760e+00
1.099190e+00
1.086260e+00
1.063730e+00
1.031600e+00
9.898730e-01
1.116260e+00
1.104210e+00
1.084420e+00
1.056880e+00
1.021590e+00
1.113040e+00
1.101700e+00
1.084740e+00
1.062140e+00
1.033920e+00
1.089540e+00
1.078730e+00
1.064680e+00
1.047390e+00
1.026840e+00
1.045760e+00
1.035310e+00
1.024260e+00
1.012620e+00
1.000380e+00
9.898730e-01
9.067770e-01
8.063070e-01
6.884650e-01
5.532500e-01
1.021590e+00
9.522190e-01
8.645710e-01
7.586500e-01
6.344540e-01
1.033920e+00
9.757140e-01
8.999570e-01
8.066440e-01
6.957760e-01
1.026840e+00
9.772630e-01
9.124640e-01
8.324480e-01
7.372150e-01
1.000380e+00
9.568650e-01
9.020930e-01
8.360610e-01
7.587710e-01
5.532500e-01
4.565030e-01
3.751660e-01
3.092380e-01
2.587180e-01
6.344540e-01
5.333900e-01
4.460440e-01
3.724150e-01
3.125040e-01
6.957760e-01
5.956630e-01
5.064190e-01
4.280440e-01
3.605370e-01
7.372150e-01
6.433220e-01
5.562920e-01
4.761240e-01
4.028180e-01
7.587710e-01
6.763680e-01
5.956630e-01
5.166560e-01
4.393470e-01
2.587180e-01
2.141870e-01
1.847500e-01
1.704070e-01
1.711570e-01
3.125040e-01
2.624310e-01
2.266930e-01
2.052900e-01
1.982230e-01
3.605370e-01
3.064520e-01
2.655810e-01
2.379240e-01
2.234810e-01
4.028180e-01
3.462510e-01
3.014140e-01
2.683080e-01
2.469340e-01
4.393470e-01
3.818270e-01
3.341920e-01
2.964430e-01
2.685790e-01
1.711570e-01
1.734700e-01
1.731030e-01
1.700540e-01
1.643250e-01
1.982230e-01
1.959220e-01
1.917350e-01
1.856620e-01
1.777030e-01
2.234810e-01
2.162250e-01
2.080030e-01
1.988130e-01
1.886570e-01
2.469340e-01
2.343800e-01
2.219050e-01
2.095080e-01
1.971890e-01
2.685790e-01
2.503860e-01
2.334410e-01
2.177450e-01
2.032970e-01
1.643250e-01
1.585630e-01
1.526130e-01
1.464760e-01
1.401520e-01
1.777030e-01
1.699180e-01
1.622980e-01
1.548420e-01
1.475520e-01
1.886570e-01
1.790540e-01
1.699450e-01
1.613310e-01
1.532110e-01
1.971890e-01
1.859720e-01
1.755560e-01
1.659410e-01
1.571280e-01
2.032970e-01
1.906700e-01
1.791290e-01
1.686740e-01
1.593040e-01
1.401520e-01
1.346530e-01
1.293080e-01
1.241170e-01
1.190790e-01
1.475520e-01
1.413690e-01
1.355330e-01
1.300440e-01
1.249020e-01
1.532110e-01
1.464500e-01
1.402130e-01
1.345000e-01
1.293110e-01
1.571280e-01
1.498950e-01
1.433470e-01
1.374840e-01
1.323060e-01
1.593040e-01
1.517040e-01
1.449350e-01
1.389960e-01
1.338880e-01
8.939170e-02
9.294950e-02
9.619770e-02
9.913610e-02
1.017650e-01
8.740010e-02
9.070340e-02
9.369170e-02
9.636500e-02
9.872320e-02
8.530680e-02
8.835350e-02
9.109250e-02
9.352370e-02
9.564700e-02
8.311190e-02
8.589980e-02
8.839990e-02
9.061210e-02
9.253640e-02
8.081530e-02
8.334230e-02
8.561390e-02
8.763030e-02
8.939130e-02
1.017650e-01
1.042350e-01
1.065190e-01
1.086170e-01
1.105280e-01
9.872320e-02
1.008880e-01