<?xml version="1.0"?>
<VTKFile type="UnstructuredGrid" version="0.1" byte_order="LittleEndian" compressor="vtkZLibDataCompressor">
<UnstructuredGrid>
<Piece NumberOfPoints="10000" NumberOfCells="6400">
<Points>
<DataArray type="Float32" NumberOfComponents="3" format="ascii">
-3.360000e+00 0.000000e+00 0.000000e+00
-3.276000e+00 0.000000e+00 0.000000e+00
-3.192000e+00 0.000000e+00 0.000000e+00
-3.108000e+00 0.000000e+00 0.000000e+00
-3.024000e+00 0.000000e+00 0.000000e+00
-3.360000e+00 6.412500e-02 0.000000e+00
-3.276000e+00 6.412500e-02 0.000000e+00
-3.192000e+00 6.412500e-02 0.000000e+00
-3.108000e+00 6.412500e-02 0.000000e+00
-3.024000e+00 6.412500e-02 0.000000e+00
-3.360000e+00 1.282500e-01 0.000000e+00
-3.276000e+00 1.282500e-01 0.000000e+00
-3.192000e+00 1.282500e-01 0.000000e+00
-3.108000e+00 1.282500e-01 0.000000e+00
-3.024000e+00 1.282500e-01 0.000000e+00
-3.360000e+00 1.923750e-01 0.000000e+00
-3.276000e+00 1.923750e-01 0.000000e+00
-3.192000e+00 1.923750e-01 0.000000e+00
-3.108000e+00 1.923750e-01 0.000000e+00
-3.024000e+00 1.923750e-01 0.000000e+00
-3.360000e+00 2.565000e-01 0.000000e+00
-3.276000e+00 2.565000e-01 0.000000e+00
-3.192000e+00 2.565000e-01 0.000000e+00
-3.108000e+00 2.565000e-01 0.000000e+00
-3.024000e+00 2.565000e-01 0.000000e+00
-3.024000e+00 0.000000e+00 0.000000e+00
-2.940000e+00 0.000000e+00 0.000000e+00
-2.856000e+00 0.000000e+00 0.000000e+00
-2.772000e+00 0.000000e+00 0.000000e+00
-2.688000e+00 0.000000e+00 0.000000e+00
-3.024000e+00 6.412500e-02 0.000000e+00
-2.940000e+00 6.412500e-02 0.000000e+00
-2.856000e+00 6.412500e-02 0.000000e+00
-2.772000e+00 6.412500e-02 0.000000e+00
-2.688000e+00 6.412500e-02 0.000000e+00
-3.024000e+00 1.282500e-01 0.000000e+00
-2.940000e+00 1.282500e-01 0.000000e+00
-2.856000e+00 1.282500e-01 0.000000e+00
-2.772000e+00 1.282500e-01 0.000000e+00
-2.688000e+00 1.282500e-01 0.000000e+00
-3.024000e+00 1.923750e-01 0.000000e+00
-2.940000e+00 1.923750e-01 0.000000e+00
-2.856000e+00 1.923750e-01 0.000000e+00
-2.772000e+00 1.923750e-01 0.000000e+00
-2.688000e+00 1.923750e-01 0.000000e+00
-3.024000e+00 2.565000e-01 0.000000e+00
-2.940000e+00 2.565000e-01 0.000000e+00
-2.856000e+00 2.565000e-01 0.000000e+00
-2.772000e+00 2.565000e-01 0.000000e+00
-2.688000e+00 2.565000e-01 0.000000e+00
-2.688000e+00 0.000000e+00 0.000000e+00
-2.604000e+00 0.000000e+00 0.000000e+00
-2.520000e+00 0.000000e+00 0.000000e+00
-2.436000e+00 0.000000e+00 0.000000e+00
-2.352000e+00 0.000000e+00 0.000000e+00
-2.688000e+00 6.412500e-02 0.000000e+00
-2.604000e+00 6.412500e-02 0.000000e+00
-2.520000e+00 6.412500e-02 0.000000e+00
-2.436000e+00 6.412500e-02 0.000000e+00
-2.352000e+00 6.412500e-02 0.000000e+00
-2.688000e+00 1.282500e-01 0.000000e+00
-2.604000e+00 1.282500e-01 0.000000e+00
-2.520000e+00 1.282500e-01 0.000000e+00
-2.436000e+00 1.282500e-01 0.000000e+00
-2.352000e+00 1.282500e-01 0.000000e+00
-2.688000e+00 1.923750e-01 0.000000e+00
-2.604000e+00 1.923750e-01 0.000000e+00
-2.520000e+00 1.923750e-01 0.000000e+00
-2.436000e+00 1.923750e-01 0.000000e+00
-2.352000e+00 1.923750e-01 0.000000e+00
-2.688000e+00 2.565000e-01 0.000000e+00
-2.604000e+00 2.565000e-01 0.000000e+00
-2.520000e+00 2.565000e-01 0.000000e+00
-2.436000e+00 2.565000e-01 0.000000e+00
-2.352000e+00 2.565000e-01 0.000000e+00
-2.352000e+00 0.000000e+00 0.000000e+00
-2.268000e+00 0.000000e+00 0.000000e+00
-2.184000e+00 0.000000e+00 0.000000e+00
-2.100000e+00 0.000000e+00 0.000000e+00
-2.016000e+00 0.000000e+00 0.000000e+00
-2.352000e+00 6.412500e-02 0.000000e+00
-2.268000e+00 6.412500e-02 0.000000e+00
-2.184000e+00 6.412500e-02 0.000000e+00
-2.100000e+00 6.412500e-02 0.000000e+00
-2.016000e+00 6.412500e-02 0.000000e+00
-2.352000e+00 1.282500e-01 0.000000e+00
-2.268000e+00 1.282500e-01 0.000000e+00
-2.184000e+00 1.282500e-01 0.000000e+00
-2.100000e+00 1.282500e-01 0.000000e+00
-2.016000e+00 1.282500e-01 0.000000e+00
-2.352000e+00 1.923750e-01 0.000000e+00
-2.268000e+00 1.923750e-01 0.000000e+00
-2.184000e+00 1.923750e-01 0.000000e+00
-2.100000e+00 1.923750e-01 0.000000e+00
-2.016000e+00 1.923750e-01 0.000000e+00
-2.352000e+00 2.565000e-01 0.000000e+00
-2.268000e+00 2.565000e-01 0.000000e+00
-2.184000e+00 2.565000e-01 0.000000e+00
-2.100000e+00 2.565000e-01 0.000000e+00
-2.016000e+00 2.565000e-01 0.000000e+00
-2.016000e+00 0.000000e+00 0.000000e+00
-1.932000e+00 0.000000e+00 0.000000e+00
-1.848000e+00 0.000000e+00 0.000000e+00
-1.764000e+00 0.000000e+00 0.000000e+00
-1.680000e+00 0.000000e+00 0.000000e+00
-2.016000e+00 6.412500e-02 0.000000e+00
-1.932000e+00 6.412500e-02 0.000000e+00
-1.848000e+00 6.412500e-02 0.000000e+00
-1.764000e+00 6.412500e-02 0.000000e+00
-1.680000e+00 6.412500e-02 0.000000e+00
-2.016000e+00 1.282500e-01 0.000000e+00
-1.932000e+00 1.282500e-01 0.000000e+00
-1.848000e+00 1.282500e-01 0.000000e+00
-1.764000e+00 1.282500e-01 0.000000e+00
-1.680000e+00 1.282500e-01 0.000000e+00
-2.016000e+00 1.923750e-01 0.000000e+00
-1.932000e+00 1.923750e-01 0.000000e+00
-1.848000e+00 1.923750e-01 0.000000e+00
-1.764000e+00 1.923750e-01 0.000000e+00
-1.680000e+00 1.923750e-01 0.000000e+00
-2.016000e+00 2.565000e-01 0.000000e+00
-1.932000e+00 2.565000e-01 0.000000e+00
-1.848000e+00 2.565000e-01 0.000000e+00
-1.764000e+00 2.565000e-01 0.000000e+00
-1.680000e+00 2.565000e-01 0.000000e+00
-1.680000e+00 0.000000e+00 0.000000e+00
-1.596000e+00 0.000000e+00 0.000000e+00
-1.512000e+00 0.000000e+00 0.000000e+00
-1.428000e+00 0.000000e+00 0.000000e+00
-1.344000e+00 0.000000e+00 0.000000e+00
-1.680000e+00 6.412500e-02 0.000000e+00
-1.596000e+00 6.412500e-02 0.000000e+00
-1.512000e+00 6.412500e-02 0.000000e+00
-1.428000e+00 6.412500e-02 0.000000e+00
-1.344000e+00 6.412500e-02 0.000000e+00
-1.680000e+00 1.282500e-01 0.000000e+00
-1.596000e+00 1.282500e-01 0.000000e+00
-1.512000e+00 1.282500e-01 0.000000e+00
-1.428000e+00 1.282500e-01 0.000000e+00
-1.344000e+00 1.282500e-01 0.000000e+00
-1.680000e+00 1.923750e-01 0.000000e+00
-1.596000e+00 1.923750e-01 0.000000e+00
-1.512000e+00 1.923750e-01 0.000000e+00
-1.428000e+00 1.923750e-01 0.000000e+00
-1.344000e+00 1.923750e-01 0.000000e+00
-1.680000e+00 2.565000e-01 0.000000e+00
-1.596000e+00 2.565000e-01 0.000000e+00
-1.512000e+00 2.565000e-01 0.000000e+00
-1.428000e+00 2.565000e-01 0.000000e+00
-1.344000e+00 2.565000e-01 0.000000e+00
-1.344000e+00 0.000000e+00 0.000000e+00
-1.260000e+00 0.000000e+00 0.000000e+00
-1.176000e+00 0.000000e+00 0.000000e+00
-1.092000e+00 0.000000e+00 0.000000e+00
-1.008000e+00 0.000000e+00 0.000000e+00
-1.344000e+00 6.412500e-02 0.000000e+00
-1.260000e+00 6.412500e-02 0.000000e+00
-1.176000e+00 6.412500e-02 0.000000e+00
-1.092000e+00 6.412500e-02 0.000000e+00
-1.008000e+00 6.412500e-02 0.000000e+00
-1.344000e+00 1.282500e-01 0.000000e+00
-1.260000e+00 1.282500e-01 0.000000e+00
-1.176000e+00 1.282500e-01 0.000000e+00
-1.092000e+00 1.282500e-01 0.000000e+00
-1.008000e+00 1.282500e-01 0.000000e+00
-1.344000e+00 1.923750e-01 0.000000e+00
-1.260000e+00 1.923750e-01 0.000000e+00
-1.176000e+00 1.923750e-01 0.000000e+00
-1.092000e+00 1.923750e-01 0.000000e+00
-1.008000e+00 1.923750e-01 0.000000e+00
-1.344000e+00 2.565000e-01 0.000000e+00
-1.260000e+00 2.565000e-01 0.000000e+00
-1.176000e+00 2.565000e-01 0.000000e+00
-1.092000e+00 2.565000e-01 0.000000e+00
-1.008000e+00 2.565000e-01 0.000000e+00
-1.008000e+00 0.000000e+00 0.000000e+00
-9.240000e-01 0.000000e+00 0.000000e+00
-8.400000e-01 0.000000e+00 0.000000e+00
-7.560000e-01 0.000000e+00 0.000000e+00
-6.720000e-01 0.000000e+00 0.000000e+00
-1.008000e+00 6.412500e-02 0.000000e+00
-9.240000e-01 6.412500e-02 0.000000e+00
-8.400000e-01 6.412500e-02 0.000000e+00
-7.560000e-01 6.412500e-02 0.000000e+00
-6.720000e-01 6.412500e-02 0.000000e+00
-1.008000e+00 1.282500e-01 0.000000e+00
-9.240000e-01 1.282500e-01 0.000000e+00
-8.400000e-01 1.282500e-01 0.000000e+00
-7.560000e-01 1.282500e-01 0.000000e+00
-6.720000e-01 1.282500e-01 0.000000e+00
-1.008000e+00 1.923750e-01 0.000000e+00
-9.240000e-01 1.923750e-01 0.000000e+00
-8.400000e-01 1.923750e-01 0.000000e+00
-7.560000e-01 1.923750e-01 0.000000e+00
-6.720000e-01 1.923750e-01 0.000000e+00
-1.008000e+00 2.565000e-01 0.000000e+00
-9.240000e-01 2.565000e-01 0.000000e+00
-8.400000e-01 2.565000e-01 0.000000e+00
-7.560000e-01 2.565000e-01 0.000000e+00
-6.720000e-01 2.565000e-01 0.000000e+00
-6.720000e-01 0.000000e+00 0.000000e+00
-5.880000e-01 0.000000e+00 0.000000e+00
-5.040000e-01 0.000000e+00 0.000000e+00
-4.200000e-01 0.000000e+00 0.000000e+00
-3.360000e-01 0.000000e+00 0.000000e+00
-6.720000e-01 6.412500e-02 0.000000e+00
-5.880000e-01 6.412500e-02 0.000000e+00
-5.040000e-01 6.412500e-02 0.000000e+00
-4.200000e-01 6.412500e-02 0.000000e+00
-3.360000e-01 6.412500e-02 0.000000e+00
-6.720000e-01 1.282500e-01 0.000000e+00
-5.880000e-01 1.282500e-01 0.000000e+00
-5.040000e-01 1.282500e-01 0.000000e+00
-4.200000e-01 1.282500e-01 0.000000e+00
-3.360000e-01 1.282500e-01 0.000000e+00
-6.720000e-01 1.923750e-01 0.000000e+00
-5.880000e-01 1.923750e-01 0.000000e+00
-5.040000e-01 1.923750e-01 0.000000e+00
-4.200000e-01 1.923750e-01 0.000000e+00
-3.360000e-01 1.923750e-01 0.000000e+00
-6.720000e-01 2.565000e-01 0.000000e+00
-5.880000e-01 2.565000e-01 0.000000e+00
-5.040000e-01 2.565000e-01 0.000000e+00
-4.200000e-01 2.565000e-01 0.000000e+00
-3.360000e-01 2.565000e-01 0.000000e+00
-3.360000e-01 0.000000e+00 0.000000e+00
-2.520000e-01 0.000000e+00 0.000000e+00
-1.680000e-01 0.000000e+00 0.000000e+00
-8.400000e-02 0.000000e+00 0.000000e+00
-4.440890e-16 0.000000e+00 0.000000e+00
-3.360000e-01 6.412500e-02 0.000000e+00
-2.520000e-01 6.412500e-02 0.000000e+00
-1.680000e-01 6.412500e-02 0.000000e+00
-8.400000e-02 6.412500e-02 0.000000e+00
-4.440890e-16 6.412500e-02 0.000000e+00
-3.360000e-01 1.282500e-01 0.000000e+00
-2.520000e-01 1.282500e-01 0.000000e+00
-1.680000e-01 1.282500e-01 0.000000e+00
-8.400000e-02 1.282500e-01 0.000000e+00
-4.440890e-16 1.282500e-01 0.000000e+00
-3.360000e-01 1.923750e-01 0.000000e+00
-2.520000e-01 1.923750e-01 0.000000e+00
-1.680000e-01 1.923750e-01 0.000000e+00
[...]
<PointData>
<DataArray type="Float32" Name="V1" format="ascii">
1.017120e-01
1.064710e-01
1.115900e-01
1.170700e-01
1.229110e-01
1.016200e-01
1.063710e-01
1.114810e-01
1.169520e-01
1.227820e-01
1.013490e-01
1.060750e-01
1.111590e-01
1.166000e-01
1.223970e-01
1.008970e-01
1.055840e-01
1.106220e-01
1.160130e-01
1.217560e-01
1.002660e-01
1.048970e-01
1.098720e-01
1.151930e-01
1.208590e-01
1.229110e-01
1.291730e-01
1.359860e-01
1.433510e-01
1.512660e-01
1.227820e-01
1.290320e-01
1.358320e-01
1.431810e-01
1.510800e-01
1.223970e-01
1.286100e-01
1.353680e-01
1.426710e-01
1.505190e-01
1.217560e-01
1.279080e-01
1.345960e-01
1.418210e-01
1.495830e-01
1.208590e-01
1.269250e-01
1.335160e-01
1.406320e-01
1.482730e-01
1.512660e-01
1.597460e-01
1.690560e-01
1.791990e-01
1.901720e-01
1.510800e-01
1.595400e-01
1.688290e-01
1.789470e-01
1.898930e-01
1.505190e-01
1.589200e-01
1.681430e-01
1.781870e-01
1.890520e-01
1.495830e-01
1.578880e-01
1.670000e-01
1.769200e-01
1.876470e-01
1.482730e-01
1.564420e-01
1.653990e-01
1.751450e-01
1.856800e-01
1.901720e-01
2.019210e-01
2.149730e-01
2.293260e-01
2.449820e-01
1.898930e-01
2.016110e-01
2.146270e-01
2.289420e-01
2.445540e-01
1.890520e-01
2.006760e-01
2.135860e-01
2.277810e-01
2.432610e-01
1.876470e-01
1.991160e-01
2.118480e-01
2.258430e-01
2.411020e-01
1.856800e-01
1.969300e-01
2.094140e-01
2.231290e-01
2.380780e-01
2.449820e-01
2.616530e-01
2.804280e-01
3.013070e-01
3.242890e-01
2.445540e-01
2.611750e-01
2.798940e-01
3.007120e-01
3.236300e-01
2.432610e-01
2.597300e-01
2.782800e-01
2.989110e-01
3.216230e-01
2.411020e-01
2.573190e-01
2.755860e-01
2.959030e-01
3.182700e-01
2.380780e-01
2.539420e-01
2.718120e-01
2.916880e-01
3.135700e-01
3.242890e-01
3.485420e-01
3.761380e-01
4.070770e-01
4.413580e-01
3.236300e-01
3.477950e-01
3.753110e-01
4.061790e-01
4.403970e-01
3.216230e-01
3.455420e-01
3.728100e-01
4.034260e-01
4.373910e-01
3.182700e-01
3.417850e-01
3.686350e-01
3.988190e-01
4.323380e-01
3.135700e-01
3.365230e-01
3.627850e-01
3.923580e-01
4.252410e-01
4.413580e-01
4.775800e-01
5.182960e-01
5.635090e-01
6.132160e-01
4.403970e-01
4.764930e-01
5.171450e-01
5.623540e-01
6.121200e-01
4.373910e-01
4.731430e-01
5.135470e-01
5.586010e-01
6.083070e-01
4.323380e-01
4.675310e-01
5.075020e-01
5.522500e-01
6.017770e-01
4.252410e-01
4.596570e-01
4.990110e-01
5.433010e-01
5.925290e-01
6.132160e-01
6.675930e-01
7.249080e-01
7.851640e-01
8.483580e-01
6.121200e-01
6.665360e-01
7.240050e-01
7.845270e-01
8.481030e-01
6.083070e-01
6.626580e-01
7.203790e-01
7.814700e-01
8.459310e-01
6.017770e-01
6.559580e-01
7.140290e-01
7.759910e-01
8.418440e-01
5.925290e-01
6.464360e-01
7.049570e-01
7.680920e-01
8.358400e-01
8.483580e-01
9.210090e-01
9.883250e-01
1.050310e+00
1.106960e+00
8.481030e-01
9.215030e-01
9.895470e-01
1.052240e+00
1.109570e+00
8.459310e-01
9.210060e-01
9.910310e-01
1.056010e+00
1.115930e+00
8.418440e-01
9.195180e-01
9.927770e-01
1.061620e+00
1.126050e+00
8.358400e-01
9.170390e-01
9.947840e-01
1.069070e+00
1.139910e+00
1.106960e+00
1.166050e+00
1.209660e+00
1.237800e+00
1.250470e+00
1.109570e+00
1.169700e+00
1.214080e+00
1.242710e+00
1.255590e+00
1.115930e+00
1.179680e+00
1.226860e+00
1.257500e+00
1.271580e+00
1.126050e+00
1.195980e+00
1.248020e+00
1.282180e+00
1.298450e+00
1.139910e+00
1.218610e+00
1.277550e+00
1.316740e+00
1.336180e+00
1.250470e+00
1.240750e+00
1.219140e+00
1.185630e+00
1.140220e+00
1.255590e+00
1.245330e+00
1.223090e+00
1.188870e+00
1.142660e+00
1.271580e+00
1.260490e+00
1.236690e+00
1.200180e+00
1.150950e+00
1.298450e+00
1.286240e+00
1.259950e+00
1.219560e+00
1.165090e+00
1.336180e+00
1.322580e+00
1.292860e+00
1.247030e+00
1.185080e+00
1.140220e+00
1.073330e+00
1.006590e+00
9.400090e-01
8.735900e-01
1.142660e+00
1.074600e+00
1.006940e+00
9.396840e-01
8.728250e-01
1.150950e+00
1.079290e+00
1.008700e+00
9.391810e-01
8.707330e-01
1.165090e+00
1.087390e+00
1.011860e+00
9.385000e-01
8.673140e-01
1.185080e+00
1.098900e+00
1.016420e+00
9.376420e-01
8.625680e-01
8.735900e-01
8.058270e-01
7.421130e-01
6.824470e-01
6.268290e-01
8.728250e-01
8.047610e-01
7.408330e-01
6.810420e-01
6.253870e-01
8.707330e-01
8.016890e-01
7.370970e-01
6.769570e-01
6.212680e-01
8.673140e-01
7.966130e-01
7.309050e-01
6.701910e-01
6.144700e-01
8.625680e-01
7.895300e-01
7.222560e-01
6.607440e-01
6.049960e-01
6.268290e-01
5.773470e-01
5.313540e-01
4.888520e-01
4.498390e-01
6.253870e-01
5.760290e-01
5.301350e-01
4.877070e-01
4.487430e-01
6.212680e-01
5.721450e-01
5.264890e-01
4.843000e-01
4.455790e-01
6.144700e-01
5.656940e-01
5.204140e-01
4.786320e-01
4.403480e-01
6.049960e-01
5.566760e-01
5.119120e-01
4.707030e-01
4.330480e-01
4.498390e-01
4.161610e-01
3.849930e-01
3.563370e-01
3.301910e-01
4.487430e-01
4.151750e-01
3.841060e-01
3.555350e-01
3.294630e-01
4.455790e-01
4.123160e-01
3.815260e-01
3.532100e-01
3.273690e-01
4.403480e-01
4.075820e-01
3.772550e-01
3.493640e-01
3.239110e-01
4.330480e-01
4.009760e-01
3.712910e-01
3.439950e-01
3.190870e-01
3.301910e-01
3.073270e-01
2.862010e-01
2.668130e-01
2.491620e-01
3.294630e-01
3.066740e-01
2.856160e-01
2.662890e-01
2.486920e-01
3.273690e-01
3.047990e-01
2.839380e-01
2.647860e-01
2.473450e-01
3.239110e-01
3.017000e-01
2.811660e-01
2.623060e-01
2.451220e-01
3.190870e-01
2.973800e-01
2.773000e-01
2.588470e-01
2.420220e-01
2.491620e-01
2.333950e-01
2.188030e-01
2.053870e-01
1.931460e-01
2.486920e-01
2.329740e-01
2.184260e-01
2.050480e-01
1.928400e-01
2.473450e-01
2.317670e-01
2.173440e-01
2.040780e-01
1.919660e-01
2.451220e-01
2.297740e-01
2.155590e-01
2.024750e-01
1.905230e-01
2.420220e-01
2.269960e-01
2.130690e-01
2.002400e-01
1.885110e-01
1.931460e-01
1.820150e-01
1.716810e-01
1.621430e-01
1.534010e-01
1.928400e-01
1.817400e-01
1.714330e-01
1.619190e-01
1.531980e-01
1.919660e-01
1.809530e-01
1.707230e-01
1.612780e-01
1.526160e-01
1.905230e-01
1.796520e-01
1.695510e-01
1.602190e-01
1.516570e-01
1.885110e-01
1.778390e-01
1.679170e-01
1.587440e-01
1.503200e-01
1.534010e-01
1.453420e-01
1.378320e-01
1.308720e-01
1.244610e-01
1.531980e-01
1.451580e-01
1.376650e-01
1.307200e-01
1.243220e-01
1.526160e-01
1.446310e-01
1.371870e-01
1.302850e-01
1.239240e-01
1.516570e-01
1.437610e-01
1.363970e-01
1.295670e-01
1.232690e-01
1.503200e-01
1.425480e-01
1.352970e-01
1.285660e-01
1.223550e-01
1.244610e-01
1.184900e-01
1.129030e-01
1.076990e-01
1.028790e-01
1.243220e-01
1.183620e-01
1.127860e-01
1.075930e-01
1.027830e-01
1.239240e-01
1.179990e-01
1.124540e-01
1.072890e-01
1.025050e-01
1.232690e-01
1.174000e-01
1.119070e-01
1.067880e-01
1.020430e-01
1.223550e-01
1.165670e-01
1.111450e-01
1.060880e-01
1.013970e-01
1.002660e-01
1.048970e-01
1.098720e-01
1.151930e-01
1.208590e-01
9.945850e-02
1.040180e-01
1.089140e-01
1.141470e-01
1.197170e-01
9.848610e-02
1.029600e-01
1.077610e-01
1.128890e-01
1.183430e-01
9.734850e-02
1.017230e-01
1.064130e-01
1.114170e-01
1.167360e-01
9.604590e-02
1.003070e-01
1.048690e-01
1.097320e-01
1.148960e-01
1.208590e-01
1.269250e-01
1.335160e-01
1.406320e-01
1.482730e-01
1.197170e-01
1.256740e-01
1.321420e-01
1.391200e-01
1.466090e-01
1.183430e-01
1.241690e-01
1.304890e-01
1.373030e-01
1.446100e-01
1.167360e-01
1.224100e-01
1.285580e-01
1.351800e-01
1.422760e-01
1.148960e-01
1.203970e-01
1.263490e-01
1.327520e-01
1.396060e-01
1.482730e-01
1.564420e-01
1.653990e-01
1.751450e-01
1.856800e-01
1.466090e-01
1.546060e-01
1.633680e-01
1.728950e-01
1.831870e-01
1.446100e-01
1.524020e-01
1.609300e-01
1.701950e-01
1.801970e-01
1.422760e-01
1.498290e-01
1.580850e-01
1.670450e-01
1.767080e-01
1.396060e-01
1.468860e-01
1.548320e-01
1.634440e-01
1.727210e-01
1.856800e-01
1.969300e-01
2.094140e-01
2.231290e-01
2.380780e-01
1.831870e-01
1.941610e-01
2.063300e-01
2.196920e-01
2.342500e-01
1.801970e-01
1.908400e-01
2.026320e-01
2.155720e-01
2.296600e-01
1.767080e-01
1.869680e-01
1.983210e-01
2.107670e-01
2.243070e-01
1.727210e-01
1.825440e-01
1.933960e-01
2.052790e-01
2.181920e-01
2.380780e-01
2.539420e-01
2.718120e-01
2.916880e-01
3.135700e-01
2.342500e-01
2.496640e-01
2.670300e-01
2.863480e-01
3.076190e-01
2.296600e-01
2.445340e-01
2.612920e-01
2.799340e-01
3.004600e-01
2.243070e-01
2.385540e-01
2.546000e-01
2.724470e-01
2.920940e-01
2.181920e-01
2.317220e-01
2.469540e-01
2.638860e-01
2.825190e-01
3.135700e-01
3.365230e-01
3.627850e-01
3.923580e-01
4.252410e-01
3.076190e-01
3.298360e-01
3.553420e-01
3.841370e-01
4.162210e-01
3.004600e-01
3.217890e-01
3.463580e-01
3.741650e-01
4.052120e-01
2.920940e-01
3.123820e-01
3.358310e-01
3.624420e-01
3.922140e-01
2.825190e-01
3.016140e-01
3.237630e-01
3.489670e-01
3.772250e-01
4.252410e-01
4.596570e-01
4.990110e-01
5.433010e-01
5.925290e-01
4.162210e-01
4.494920e-01
4.879960e-01
5.317350e-01
5.807080e-01
4.052120e-01
4.370550e-01
4.743840e-01
5.172010e-01
5.655040e-01
3.922140e-01
4.223460e-01
4.581750e-01
4.996990e-01
5.469190e-01
3.772250e-01
4.053660e-01
4.393670e-01
4.792290e-01
5.249520e-01
5.925290e-01
6.464360e-01
7.049570e-01
7.680920e-01
8.358400e-01
5.807080e-01
6.339650e-01
6.929460e-01
7.576490e-01
8.280750e-01
5.655040e-01
6.175420e-01
6.764820e-01
7.423250e-01
8.150710e-01
5.469190e-01
5.971650e-01
6.555660e-01
7.221210e-01
7.968300e-01
5.249520e-01
5.728360e-01
6.301970e-01
6.970350e-01
7.733500e-01
8.358400e-01
9.170390e-01
9.947840e-01
1.069070e+00
1.139910e+00
8.280750e-01
9.145390e-01
9.985630e-01
1.080150e+00
1.159290e+00
8.150710e-01
9.065360e-01
9.971740e-01
1.086990e+00
1.175970e+00
7.968300e-01
8.930310e-01
9.906170e-01
1.089590e+00
1.189940e+00
7.733500e-01
8.740250e-01
9.788930e-01
1.087950e+00
1.201210e+00
1.139910e+00
1.218610e+00
1.277550e+00
1.316740e+00
1.336180e+00
1.159290e+00
1.251410e+00
1.320680e+00
1.367090e+00
1.390650e+00
1.175970e+00
1.285080e+00
1.367630e+00
1.423600e+00
1.453010e+00
1.189940e+00
1.319620e+00
1.418400e+00
1.486280e+00
1.523280e+00
1.201210e+00
1.355020e+00
1.472990e+00
1.555130e+00
1.601450e+00
1.336180e+00
1.322580e+00
1.292860e+00
1.247030e+00
1.185080e+00
1.390650e+00
1.372590e+00
1.336490e+00
1.282320e+00
1.210090e+00
1.453010e+00
1.430170e+00
1.386410e+00
1.321730e+00
1.236120e+00
1.523280e+00
1.495310e+00
1.442650e+00
1.365270e+00
1.263190e+00
1.601450e+00
1.568020e+00
1.505180e+00
1.412940e+00
1.291280e+00
1.185080e+00
1.098900e+00
1.016420e+00
9.376420e-01
8.625680e-01
1.210090e+00
1.111190e+00
1.018860e+00
9.330690e-01
8.538360e-01
1.236120e+00
1.121600e+00
1.017410e+00
9.235520e-01
8.400290e-01
1.263190e+00
1.130110e+00
1.012080e+00
9.090910e-01
8.211470e-01
1.291280e+00
1.136730e+00
1.002870e+00
8.896870e-01
7.971900e-01
8.625680e-01
7.895300e-01
7.222560e-01
6.607440e-01
6.049960e-01
8.538360e-01
7.788810e-01
7.102660e-01
6.479910e-01
5.920560e-01
8.400290e-01
7.634750e-01
6.938970e-01
6.312940e-01
5.756670e-01
8.211470e-01
7.433120e-01
6.731470e-01
6.106530e-01
5.558290e-01
7.971900e-01
7.183910e-01
6.480170e-01
5.860670e-01
5.325420e-01
6.049960e-01
5.566760e-01
5.119120e-01
4.707030e-01
4.330480e-01
5.920560e-01
5.446900e-01
5.008150e-01
4.604290e-01
4.235340e-01
5.756670e-01
5.296920e-01
4.870890e-01
4.478590e-01
4.120020e-01
5.558290e-01
5.116820e-01
4.707360e-01
4.329930e-01
3.984520e-01
5.325420e-01
4.906590e-01
4.517550e-01
4.158300e-01
3.828850e-01
4.330480e-01
4.009760e-01
3.712910e-01
3.439950e-01
3.190870e-01
4.235340e-01
3.924040e-01
3.635830e-01
3.370690e-01
3.128650e-01
4.120020e-01
3.820580e-01
3.543130e-01
3.287670e-01
3.054210e-01
3.984520e-01
3.699360e-01
3.434820e-01
3.190890e-01
2.967570e-01
3.828850e-01
3.560410e-01
3.310900e-01
3.080340e-01
2.868710e-01
3.190870e-01
2.973800e-01
2.773000e-01
2.588470e-01
2.420220e-01
3.128650e-01
2.918160e-01
2.723280e-01
2.544020e-01
2.380360e-01
3.054210e-01
2.851670e-01
2.663920e-01
2.490960e-01
2.332790e-01
2.967570e-01
2.774330e-01
2.594910e-01
2.429310e-01
2.277530e-01
2.868710e-01
2.686130e-01
2.516240e-01
2.359060e-01
2.214570e-01
2.420220e-01
2.269960e-01
2.130690e-01
2.002400e-01
1.885110e-01
2.380360e-01
2.234240e-01
2.098690e-01
1.973680e-01
1.859230e-01
2.332790e-01
2.191620e-01
2.060490e-01
1.939390e-01
1.828320e-01
2.277530e-01
2.142100e-01
2.016100e-01
1.899530e-01
1.792400e-01
2.214570e-01
2.085670e-01
1.965520e-01
1.854110e-01
1.751440e-01
1.885110e-01
1.778390e-01
1.679170e-01
1.587440e-01
1.503200e-01
1.859230e-01
1.755080e-01
1.658150e-01
1.568450e-01
1.485970e-01
1.828320e-01
1.727220e-01
1.633030e-01
1.545750e-01
1.465370e-01
1.792400e-01
1.694830e-01
1.603800e-01
1.519320e-01
1.441390e-01
1.751440e-01
1.657890e-01
1.570470e-01
1.489180e-01
1.414020e-01
1.503200e-01
1.425480e-01
1.352970e-01
1.285660e-01
1.223550e-01
1.485970e-01
1.409860e-01
1.338780e-01
1.272750e-01
1.211760e-01
1.465370e-01
1.391160e-01
1.321800e-01
1.257290e-01
1.197630e-01
1.441390e-01
1.369390e-01
1.302010e-01
1.239270e-01
1.181160e-01
1.414020e-01
1.344540e-01
1.279430e-01
1.218700e-01
1.162350e-01
1.223550e-01
1.165670e-01
1.111450e-01
1.060880e-01
1.013970e-01
1.211760e-01
1.154890e-01
1.101590e-01
1.051860e-01
1.005700e-01
1.197630e-01
1.141970e-01
1.089760e-01
1.041020e-01
9.957380e-02
1.181160e-01
1.126910e-01
1.075980e-01
1.028380e-01
9.840950e-02
1.162350e-01
1.109710e-01
1.060240e-01
1.013920e-01
9.707690e-02
9.604590e-02
1.003070e-01
1.048690e-01
1.097320e-01
1.148960e-01
9.458900e-02
9.872420e-02
1.031450e-01
1.078530e-01
1.128460e-01
9.299440e-02
9.699250e-02
1.012610e-01
1.057990e-01
1.106070e-01
9.126190e-02
9.511230e-02
9.921540e-02
1.035710e-01
1.081800e-01
8.939170e-02
9.308330e-02
9.700930e-02
1.011700e-01
1.055640e-01
1.148960e-01
1.203970e-01
1.263490e-01
1.327520e-01
1.396060e-01
1.128460e-01
1.181550e-01
1.238910e-01
1.300520e-01
1.366390e-01
1.106070e-01
1.157090e-01
1.212100e-01
1.271090e-01
1.334080e-01
1.081800e-01
1.130580e-01
1.183070e-01
1.239260e-01
1.299150e-01
1.055640e-01
1.102030e-01
1.151820e-01
1.205000e-01
1.261580e-01
1.396060e-01
1.468860e-01
1.548320e-01
1.634440e-01
1.727210e-01
1.366390e-01
1.436180e-01
1.512220e-01
1.594500e-01
1.683030e-01
1.334080e-01
1.400630e-01
1.472980e-01
1.551120e-01
1.635070e-01
1.299150e-01
1.362210e-01
1.430600e-01
1.504310e-01
1.583340e-01
1.261580e-01
1.320920e-01
1.385080e-01
1.454060e-01
1.527850e-01
1.727210e-01
1.825440e-01
1.933960e-01
2.052790e-01
2.181920e-01
1.683030e-01
1.776410e-01
1.879420e-01
1.992040e-01
2.114280e-01
1.635070e-01
1.723260e-01
1.820310e-01
1.926240e-01
2.041030e-01
1.583340e-01
1.665960e-01
1.756640e-01
1.855380e-01
1.962190e-01
1.527850e-01
1.604530e-01
1.688400e-01
1.779480e-01
1.877740e-01
2.181920e-01
2.317220e-01
2.469540e-01
2.638860e-01
2.825190e-01
2.114280e-01
2.241600e-01
2.384870e-01
2.544080e-01
2.719240e-01
2.041030e-01
2.159780e-01
2.293260e-01
2.441470e-01
2.604420e-01
1.962190e-01
2.071750e-01
2.194690e-01
2.331030e-01
2.480740e-01
1.877740e-01
1.977510e-01
2.089180e-01
2.212740e-01
2.348190e-01
2.825190e-01
3.016140e-01
3.237630e-01
3.489670e-01
3.772250e-01
2.719240e-01
2.896630e-01
3.103410e-01
3.339580e-01
3.605140e-01
2.604420e-01
2.767130e-01
2.957650e-01
3.175980e-01
3.422120e-01
2.480740e-01
2.627640e-01
2.800350e-01
2.998870e-01
3.223200e-01
2.348190e-01
2.478150e-01
2.631500e-01
2.808250e-01
3.008380e-01
3.772250e-01
4.053660e-01
4.393670e-01
4.792290e-01
5.249520e-01
3.605140e-01
3.861970e-01
4.179690e-01
4.558300e-01
4.997800e-01
3.422120e-01
3.651760e-01
3.943020e-01
4.295920e-01
4.710440e-01
3.223200e-01
3.423020e-01
3.683670e-01
4.005150e-01
4.387460e-01
3.008380e-01
3.175750e-01
3.401620e-01
3.685980e-01
4.028840e-01
5.249520e-01
5.728360e-01
6.301970e-01
6.970350e-01
7.733500e-01
4.997800e-01
5.432500e-01
5.984410e-01
6.653530e-01
7.439850e-01
4.710440e-01
5.092140e-01
5.607720e-01
6.257170e-01
7.040510e-01
4.387460e-01
4.707290e-01
5.171900e-01
5.781300e-01
6.535480e-01
4.028840e-01
4.277940e-01
4.676960e-01
5.225900e-01
5.924760e-01
7.733500e-01
8.740250e-01
9.788930e-01
1.087950e+00
1.201210e+00
7.439850e-01
8.487230e-01
9.602100e-01
1.078440e+00
1.203430e+00
7.040510e-01
8.083660e-01
9.206950e-01
1.041040e+00
1.169390e+00
6.535480e-01
7.529530e-01
8.603490e-01
9.757360e-01
1.099110e+00
5.924760e-01
6.824830e-01
7.791710e-01
8.825390e-01
9.925870e-01
1.201210e+00
1.355020e+00
1.472990e+00
1.555130e+00
1.601450e+00
1.203430e+00
1.392470e+00
1.535920e+00
1.633770e+00
1.686030e+00
1.169390e+00
1.381630e+00
1.541810e+00
1.649920e+00
1.705970e+00
1.099110e+00
1.322510e+00
1.490660e+00
1.603590e+00
1.661280e+00
9.925870e-01
1.215090e+00
1.382490e+00
1.494780e+00
1.551960e+00
1.601450e+00
1.568020e+00
1.505180e+00
1.412940e+00
1.291280e+00
1.686030e+00
1.633190e+00
1.552350e+00
1.443500e+00
1.306650e+00
1.705970e+00
1.639790e+00
1.547900e+00
1.430300e+00
1.286980e+00
1.661280e+00
1.587830e+00
1.491840e+00
1.373320e+00
1.232260e+00
1.551960e+00
1.477300e+00
1.384170e+00
1.272570e+00
1.142490e+00
1.291280e+00
1.136730e+00
1.002870e+00
8.896870e-01
7.971900e-01
1.306650e+00
1.129850e+00
9.799930e-01
8.570810e-01
7.611140e-01
1.286980e+00
1.095460e+00
9.360770e-01
8.088330e-01
7.137270e-01
1.232260e+00
1.033560e+00
8.711210e-01
7.449440e-01
6.550280e-01
1.142490e+00
9.441500e-01
7.851240e-01
6.654140e-01
5.850190e-01
7.971900e-01
7.183910e-01
6.480170e-01
5.860670e-01
5.325420e-01
7.611140e-01
6.855750e-01
6.176850e-01
5.574430e-01
5.048490e-01
7.137270e-01
6.443200e-01
5.811470e-01
5.242080e-01
4.735020e-01
6.550280e-01
5.946260e-01
5.384040e-01
4.863620e-01
4.385000e-01
5.850190e-01
5.364940e-01
4.894560e-01
4.439060e-01
3.998440e-01
5.325420e-01
4.906590e-01
4.517550e-01
4.158300e-01
3.828850e-01
5.048490e-01
4.661020e-01
4.299140e-01
3.962860e-01
3.652190e-01
4.735020e-01
4.386300e-01
4.057490e-01
3.748570e-01
3.459560e-01
4.385000e-01
4.082450e-01
3.792590e-01
3.515430e-01
3.250970e-01
3.998440e-01
3.749450e-01
3.504450e-01
3.263440e-01
3.026400e-01
3.828850e-01
3.560410e-01
3.310900e-01
3.080340e-01
2.868710e-01
3.652190e-01
3.403670e-01
3.171820e-01
2.956650e-01
2.758140e-01
3.459560e-01
3.233340e-01
3.021120e-01
2.822910e-01
2.638710e-01
3.250970e-01
3.049400e-01
2.858790e-01
2.679120e-01
2.510400e-01
3.026400e-01
2.851880e-01
2.684840e-01
2.525290e-01
2.373230e-01
2.868710e-01
2.686130e-01
2.516240e-01
2.359060e-01
2.214570e-01
2.758140e-01
2.587650e-01
2.428520e-01
2.280770e-01
2.144390e-01
2.638710e-01
2.481310e-01
2.333830e-01
2.196250e-01
2.068590e-01
2.510400e-01
2.367120e-01
2.232160e-01
2.105510e-01
1.987180e-01
2.373230e-01
2.245070e-01
2.123510e-01
2.008540e-01
1.900160e-01
2.214570e-01
2.085670e-01
1.965520e-01
1.854110e-01
1.751440e-01
2.144390e-01
2.022770e-01
1.909130e-01
1.803460e-01
1.705760e-01
2.068590e-01
1.954810e-01
1.848160e-01
1.748660e-01
1.656280e-01
1.987180e-01
1.881780e-01
1.782620e-01
1.689700e-01
1.603030e-01
1.900160e-01
1.803680e-01
1.712490e-01
1.626590e-01
1.545990e-01
1.751440e-01
1.657890e-01
1.570470e-01
1.489180e-01
1.414020e-01
1.705760e-01
1.616660e-01
1.533250e-01
1.455500e-01
1.383430e-01
1.656280e-01
1.571990e-01
1.492880e-01
1.418940e-01
1.350190e-01
1.603030e-01
1.523860e-01
1.449350e-01
1.379500e-01
1.314310e-01
1.545990e-01
1.472280e-01
1.402680e-01
1.337180e-01
1.275790e-01
1.414020e-01
1.344540e-01
1.279430e-01
1.218700e-01
1.162350e-01
1.383430e-01
1.316740e-01
1.254140e-01
1.195650e-01
1.141260e-01
1.350190e-01
1.286510e-01
1.226630e-01
1.170560e-01
1.118290e-01
1.314310e-01
1.253850e-01
1.196890e-01
1.143410e-01
1.093410e-01
1.275790e-01
1.218770e-01
1.164910e-01
1.114200e-01
1.066650e-01
1.162350e-01
1.109710e-01
1.060240e-01
1.013920e-01
9.707690e-02
1.141260e-01
1.090410e-01
1.042560e-01
9.977030e-02
9.558490e-02
1.118290e-01
1.069360e-01
1.023260e-01
9.799840e-02
9.395270e-02
1.093410e-01
1.046570e-01
1.002360e-01
9.607670e-02
9.218040e-02
1.066650e-01
1.022040e-01
9.798370e-02
9.400520e-02
9.026800e-02
8.939170e-02
9.308330e-02
9.700930e-02
1.011700e-01
1.055640e-01
8.740010e-02
9.092460e-02
9.466420e-02
9.861890e-02
1.027890e-01
8.530680e-02
8.865750e-02
9.220360e-02
9.594530e-02
9.988250e-02
8.311190e-02
8.628210e-02
8.962770e-02
9.314870e-02
9.684510e-02
8.081530e-02
8.379840e-02
8.693630e-02
9.022900e-02
9.367660e-02
1.055640e-01
1.102030e-01
1.151820e-01
1.205000e-01
1.261580e-01
1.027890e-01
1.071770e-01
1.118730e-01