<?xml version="1.0"?>
<VTKFile type="UnstructuredGrid" version="0.1" byte_order="LittleEndian" compressor="vtkZLibDataCompressor">
<UnstructuredGrid>
<Piece NumberOfPoints="10000" NumberOfCells="6400">
<Points>
<DataArray type="Float32" NumberOfComponents="3" format="ascii">
-3.360000e+00 0.000000e+00 0.000000e+00
-3.276000e+00 0.000000e+00 0.000000e+00
-3.192000e+00 0.000000e+00 0.000000e+00
-3.108000e+00 0.000000e+00 0.000000e+00
-3.024000e+00 0.000000e+00 0.000000e+00
-3.360000e+00 6.412500e-02 0.000000e+00
-3.276000e+00 6.412500e-02 0.000000e+00
-3.192000e+00 6.412500e-02 0.000000e+00
-3.108000e+00 6.412500e-02 0.000000e+00
-3.024000e+00 6.412500e-02 0.000000e+00
-3.360000e+00 1.282500e-01 0.000000e+00
-3.276000e+00 1.282500e-01 0.000000e+00
-3.192000e+00 1.282500e-01 0.000000e+00
-3.108000e+00 1.282500e-01 0.000000e+00
-3.024000e+00 1.282500e-01 0.000000e+00
-3.360000e+00 1.923750e-01 0.000000e+00
-3.276000e+00 1.923750e-01 0.000000e+00
-3.192000e+00 1.923750e-01 0.000000e+00
-3.108000e+00 1.923750e-01 0.000000e+00
-3.024000e+00 1.923750e-01 0.000000e+00
-3.360000e+00 2.565000e-01 0.000000e+00
-3.276000e+00 2.565000e-01 0.000000e+00
-3.192000e+00 2.565000e-01 0.000000e+00
-3.108000e+00 2.565000e-01 0.000000e+00
-3.024000e+00 2.565000e-01 0.000000e+00
-3.024000e+00 0.000000e+00 0.000000e+00
-2.940000e+00 0.000000e+00 0.000000e+00
-2.856000e+00 0.000000e+00 0.000000e+00
-2.772000e+00 0.000000e+00 0.000000e+00
-2.688000e+00 0.000000e+00 0.000000e+00
-3.024000e+00 6.412500e-02 0.000000e+00
-2.940000e+00 6.412500e-02 0.000000e+00
-2.856000e+00 6.412500e-02 0.000000e+00
-2.772000e+00 6.412500e-02 0.000000e+00
-2.688000e+00 6.412500e-02 0.000000e+00
-3.024000e+00 1.282500e-01 0.000000e+00
-2.940000e+00 1.282500e-01 0.000000e+00
-2.856000e+00 1.282500e-01 0.000000e+00
-2.772000e+00 1.282500e-01 0.000000e+00
-2.688000e+00 1.282500e-01 0.000000e+00
-3.024000e+00 1.923750e-01 0.000000e+00
-2.940000e+00 1.923750e-01 0.000000e+00
-2.856000e+00 1.923750e-01 0.000000e+00
-2.772000e+00 1.923750e-01 0.000000e+00
-2.688000e+00 1.923750e-01 0.000000e+00
-3.024000e+00 2.565000e-01 0.000000e+00
-2.940000e+00 2.565000e-01 0.000000e+00
-2.856000e+00 2.565000e-01 0.000000e+00
-2.772000e+00 2.565000e-01 0.000000e+00
-2.688000e+00 2.565000e-01 0.000000e+00
-2.688000e+00 0.000000e+00 0.000000e+00
-2.604000e+00 0.000000e+00 0.000000e+00
-2.520000e+00 0.000000e+00 0.000000e+00
-2.436000e+00 0.000000e+00 0.000000e+00
-2.352000e+00 0.000000e+00 0.000000e+00
-2.688000e+00 6.412500e-02 0.000000e+00
-2.604000e+00 6.412500e-02 0.000000e+00
-2.520000e+00 6.412500e-02 0.000000e+00
-2.436000e+00 6.412500e-02 0.000000e+00
-2.352000e+00 6.412500e-02 0.000000e+00
-2.688000e+00 1.282500e-01 0.000000e+00
-2.604000e+00 1.282500e-01 0.000000e+00
-2.520000e+00 1.282500e-01 0.000000e+00
-2.436000e+00 1.282500e-01 0.000000e+00
-2.352000e+00 1.282500e-01 0.000000e+00
-2.688000e+00 1.923750e-01 0.000000e+00
-2.604000e+00 1.923750e-01 0.000000e+00
-2.520000e+00 1.923750e-01 0.000000e+00
-2.436000e+00 1.923750e-01 0.000000e+00
-2.352000e+00 1.923750e-01 0.000000e+00
-2.688000e+00 2.565000e-01 0.000000e+00
-2.604000e+00 2.565000e-01 0.000000e+00
-2.520000e+00 2.565000e-01 0.000000e+00
-2.436000e+00 2.565000e-01 0.000000e+00
-2.352000e+00 2.565000e-01 0.000000e+00
-2.352000e+00 0.000000e+00 0.000000e+00
-2.268000e+00 0.000000e+00 0.000000e+00
-2.184000e+00 0.000000e+00 0.000000e+00
-2.100000e+00 0.000000e+00 0.000000e+00
-2.016000e+00 0.000000e+00 0.000000e+00
-2.352000e+00 6.412500e-02 0.000000e+00
-2.268000e+00 6.412500e-02 0.000000e+00
-2.184000e+00 6.412500e-02 0.000000e+00
-2.100000e+00 6.412500e-02 0.000000e+00
-2.016000e+00 6.412500e-02 0.000000e+00
-2.352000e+00 1.282500e-01 0.000000e+00
-2.268000e+00 1.282500e-01 0.000000e+00
-2.184000e+00 1.282500e-01 0.000000e+00
-2.100000e+00 1.282500e-01 0.000000e+00
-2.016000e+00 1.282500e-01 0.000000e+00
-2.352000e+00 1.923750e-01 0.000000e+00
-2.268000e+00 1.923750e-01 0.000000e+00
-2.184000e+00 1.923750e-01 0.000000e+00
-2.100000e+00 1.923750e-01 0.000000e+00
-2.016000e+00 1.923750e-01 0.000000e+00
-2.352000e+00 2.565000e-01 0.000000e+00
-2.268000e+00 2.565000e-01 0.000000e+00
-2.184000e+00 2.565000e-01 0.000000e+00
-2.100000e+00 2.565000e-01 0.000000e+00
-2.016000e+00 2.565000e-01 0.000000e+00
-2.016000e+00 0.000000e+00 0.000000e+00
-1.932000e+00 0.000000e+00 0.000000e+00
-1.848000e+00 0.000000e+00 0.000000e+00
-1.764000e+00 0.000000e+00 0.000000e+00
-1.680000e+00 0.000000e+00 0.000000e+00
-2.016000e+00 6.412500e-02 0.000000e+00
-1.932000e+00 6.412500e-02 0.000000e+00
-1.848000e+00 6.412500e-02 0.000000e+00
-1.764000e+00 6.412500e-02 0.000000e+00
-1.680000e+00 6.412500e-02 0.000000e+00
-2.016000e+00 1.282500e-01 0.000000e+00
-1.932000e+00 1.282500e-01 0.000000e+00
-1.848000e+00 1.282500e-01 0.000000e+00
-1.764000e+00 1.282500e-01 0.000000e+00
-1.680000e+00 1.282500e-01 0.000000e+00
-2.016000e+00 1.923750e-01 0.000000e+00
-1.932000e+00 1.923750e-01 0.000000e+00
-1.848000e+00 1.923750e-01 0.000000e+00
-1.764000e+00 1.923750e-01 0.000000e+00
-1.680000e+00 1.923750e-01 0.000000e+00
-2.016000e+00 2.565000e-01 0.000000e+00
-1.932000e+00 2.565000e-01 0.000000e+00
-1.848000e+00 2.565000e-01 0.000000e+00
-1.764000e+00 2.565000e-01 0.000000e+00
-1.680000e+00 2.565000e-01 0.000000e+00
-1.680000e+00 0.000000e+00 0.000000e+00
-1.596000e+00 0.000000e+00 0.000000e+00
-1.512000e+00 0.000000e+00 0.000000e+00
-1.428000e+00 0.000000e+00 0.000000e+00
-1.344000e+00 0.000000e+00 0.000000e+00
-1.680000e+00 6.412500e-02 0.000000e+00
-1.596000e+00 6.412500e-02 0.000000e+00
-1.512000e+00 6.412500e-02 0.000000e+00
-1.428000e+00 6.412500e-02 0.000000e+00
-1.344000e+00 6.412500e-02 0.000000e+00
-1.680000e+00 1.282500e-01 0.000000e+00
-1.596000e+00 1.282500e-01 0.000000e+00
-1.512000e+00 1.282500e-01 0.000000e+00
-1.428000e+00 1.282500e-01 0.000000e+00
-1.344000e+00 1.282500e-01 0.000000e+00
-1.680000e+00 1.923750e-01 0.000000e+00
-1.596000e+00 1.923750e-01 0.000000e+00
-1.512000e+00 1.923750e-01 0.000000e+00
-1.428000e+00 1.923750e-01 0.000000e+00
-1.344000e+00 1.923750e-01 0.000000e+00
-1.680000e+00 2.565000e-01 0.000000e+00
-1.596000e+00 2.565000e-01 0.000000e+00
-1.512000e+00 2.565000e-01 0.000000e+00
-1.428000e+00 2.565000e-01 0.000000e+00
-1.344000e+00 2.565000e-01 0.000000e+00
-1.344000e+00 0.000000e+00 0.000000e+00
-1.260000e+00 0.000000e+00 0.000000e+00
-1.176000e+00 0.000000e+00 0.000000e+00
-1.092000e+00 0.000000e+00 0.000000e+00
-1.008000e+00 0.000000e+00 0.000000e+00
-1.344000e+00 6.412500e-02 0.000000e+00
-1.260000e+00 6.412500e-02 0.000000e+00
-1.176000e+00 6.412500e-02 0.000000e+00
-1.092000e+00 6.412500e-02 0.000000e+00
-1.008000e+00 6.412500e-02 0.000000e+00
-1.344000e+00 1.282500e-01 0.000000e+00
-1.260000e+00 1.282500e-01 0.000000e+00
-1.176000e+00 1.282500e-01 0.000000e+00
-1.092000e+00 1.282500e-01 0.000000e+00
-1.008000e+00 1.282500e-01 0.000000e+00
-1.344000e+00 1.923750e-01 0.000000e+00
-1.260000e+00 1.923750e-01 0.000000e+00
-1.176000e+00 1.923750e-01 0.000000e+00
-1.092000e+00 1.923750e-01 0.000000e+00
-1.008000e+00 1.923750e-01 0.000000e+00
-1.344000e+00 2.565000e-01 0.000000e+00
-1.260000e+00 2.565000e-01 0.000000e+00
-1.176000e+00 2.565000e-01 0.000000e+00
-1.092000e+00 2.565000e-01 0.000000e+00
-1.008000e+00 2.565000e-01 0.000000e+00
-1.008000e+00 0.000000e+00 0.000000e+00
-9.240000e-01 0.000000e+00 0.000000e+00
-8.400000e-01 0.000000e+00 0.000000e+00
-7.560000e-01 0.000000e+00 0.000000e+00
-6.720000e-01 0.000000e+00 0.000000e+00
-1.008000e+00 6.412500e-02 0.000000e+00
-9.240000e-01 6.412500e-02 0.000000e+00
-8.400000e-01 6.412500e-02 0.000000e+00
-7.560000e-01 6.412500e-02 0.000000e+00
-6.720000e-01 6.412500e-02 0.000000e+00
-1.008000e+00 1.282500e-01 0.000000e+00
-9.240000e-01 1.282500e-01 0.000000e+00
-8.400000e-01 1.282500e-01 0.000000e+00
-7.560000e-01 1.282500e-01 0.000000e+00
-6.720000e-01 1.282500e-01 0.000000e+00
-1.008000e+00 1.923750e-01 0.000000e+00
-9.240000e-01 1.923750e-01 0.000000e+00
-8.400000e-01 1.923750e-01 0.000000e+00
-7.560000e-01 1.923750e-01 0.000000e+00
-6.720000e-01 1.923750e-01 0.000000e+00
-1.008000e+00 2.565000e-01 0.000000e+00
-9.240000e-01 2.565000e-01 0.000000e+00
-8.400000e-01 2.565000e-01 0.000000e+00
-7.560000e-01 2.565000e-01 0.000000e+00
-6.720000e-01 2.565000e-01 0.000000e+00
-6.720000e-01 0.000000e+00 0.000000e+00
-5.880000e-01 0.000000e+00 0.000000e+00
-5.040000e-01 0.000000e+00 0.000000e+00
-4.200000e-01 0.000000e+00 0.000000e+00
-3.360000e-01 0.000000e+00 0.000000e+00
-6.720000e-01 6.412500e-02 0.000000e+00
-5.880000e-01 6.412500e-02 0.000000e+00
-5.040000e-01 6.412500e-02 0.000000e+00
-4.200000e-01 6.412500e-02 0.000000e+00
-3.360000e-01 6.412500e-02 0.000000e+00
-6.720000e-01 1.282500e-01 0.000000e+00
-5.880000e-01 1.282500e-01 0.000000e+00
-5.040000e-01 1.282500e-01 0.000000e+00
-4.200000e-01 1.282500e-01 0.000000e+00
-3.360000e-01 1.282500e-01 0.000000e+00
-6.720000e-01 1.923750e-01 0.000000e+00
-5.880000e-01 1.923750e-01 0.000000e+00
-5.040000e-01 1.923750e-01 0.000000e+00
-4.200000e-01 1.923750e-01 0.000000e+00
-3.360000e-01 1.923750e-01 0.000000e+00
-6.720000e-01 2.565000e-01 0.000000e+00
-5.880000e-01 2.565000e-01 0.000000e+00
-5.040000e-01 2.565000e-01 0.000000e+00
-4.200000e-01 2.565000e-01 0.000000e+00
-3.360000e-01 2.565000e-01 0.000000e+00
-3.360000e-01 0.000000e+00 0.000000e+00
-2.520000e-01 0.000000e+00 0.000000e+00
-1.680000e-01 0.000000e+00 0.000000e+00
-8.400000e-02 0.000000e+00 0.000000e+00
-4.440890e-16 0.000000e+00 0.000000e+00
-3.360000e-01 6.412500e-02 0.000000e+00
-2.520000e-01 6.412500e-02 0.000000e+00
-1.680000e-01 6.412500e-02 0.000000e+00
-8.400000e-02 6.412500e-02 0.000000e+00
-4.440890e-16 6.412500e-02 0.000000e+00
-3.360000e-01 1.282500e-01 0.000000e+00
-2.520000e-01 1.282500e-01 0.000000e+00
-1.680000e-01 1.282500e-01 0.000000e+00
-8.400000e-02 1.282500e-01 0.000000e+00
-4.440890e-16 1.282500e-01 0.000000e+00
-3.360000e-01 1.923750e-01 0.000000e+00
-2.520000e-01 1.923750e-01 0.000000e+00
-1.680000e-01 1.923750e-01 0.000000e+00
[...]
<PointData>
<DataArray type="Float32" Name="V1" format="ascii">
0.000000e+00
0.000000e+00
0.000000e+00
0.000000e+00
0.000000e+00
6.347820e-02
5.962790e-02
5.534120e-02
5.061810e-02
4.545860e-02
1.013490e-01
9.772240e-02
9.290280e-02
8.688970e-02
7.968320e-02
1.136110e-01
1.142830e-01
1.126850e-01
1.088150e-01
1.026740e-01
1.002660e-01
1.093110e-01
1.146870e-01
1.163930e-01
1.144300e-01
0.000000e+00
0.000000e+00
0.000000e+00
0.000000e+00
0.000000e+00
4.545860e-02
3.994760e-02
3.590690e-02
3.333650e-02
3.223640e-02
7.968320e-02
7.173050e-02
6.577840e-02
6.182660e-02
5.987540e-02
1.026740e-01
9.534890e-02
8.961450e-02
8.547050e-02
8.291700e-02
1.144300e-01
1.108030e-01
1.074150e-01
1.042680e-01
1.013610e-01
0.000000e+00
0.000000e+00
0.000000e+00
0.000000e+00
0.000000e+00
3.223640e-02
3.135920e-02
3.076560e-02
3.045550e-02
3.042900e-02
5.987540e-02
5.842310e-02
5.750730e-02
5.712800e-02
5.728520e-02
8.291700e-02
8.119160e-02
8.022510e-02
8.001740e-02
8.056840e-02
1.013610e-01
9.966490e-02
9.891910e-02
9.912370e-02
1.002790e-01
0.000000e+00
0.000000e+00
0.000000e+00
0.000000e+00
0.000000e+00
3.042900e-02
3.052920e-02
3.094540e-02
3.167770e-02
3.272620e-02
5.728520e-02
5.768460e-02
5.860710e-02
6.005270e-02
6.202140e-02
8.056840e-02
8.146620e-02
8.298510e-02
8.512490e-02
8.788570e-02
1.002790e-01
1.018740e-01
1.040790e-01
1.068940e-01
1.103190e-01
0.000000e+00
0.000000e+00
0.000000e+00
0.000000e+00
0.000000e+00
3.272620e-02
3.396610e-02
3.548290e-02
3.727650e-02
3.934700e-02
6.202140e-02
6.433850e-02
6.714900e-02
7.045310e-02
7.425070e-02
8.788570e-02
9.111700e-02
9.499840e-02
9.952980e-02
1.047110e-01
1.103190e-01
1.143020e-01
1.190310e-01
1.245070e-01
1.307290e-01
0.000000e+00
0.000000e+00
0.000000e+00
0.000000e+00
0.000000e+00
3.934700e-02
4.166360e-02
4.447010e-02
4.776650e-02
5.155290e-02
7.425070e-02
7.847820e-02
8.353440e-02
8.941930e-02
9.613300e-02
1.047110e-01
1.104440e-01
1.171930e-01
1.249580e-01
1.337400e-01
1.307290e-01
1.375610e-01
1.454460e-01
1.543840e-01
1.643750e-01
0.000000e+00
0.000000e+00
0.000000e+00
0.000000e+00
0.000000e+00
5.155290e-02
5.561260e-02
6.053990e-02
6.633490e-02
7.299750e-02
9.613300e-02
1.033090e-01
1.119270e-01
1.219870e-01
1.334870e-01
1.337400e-01
1.430910e-01
1.541620e-01
1.669550e-01
1.814690e-01
1.643750e-01
1.749560e-01
1.872450e-01
2.012410e-01
2.169430e-01
0.000000e+00
0.000000e+00
0.000000e+00
0.000000e+00
0.000000e+00
7.299750e-02
7.973390e-02
8.803750e-02
9.790850e-02
1.093470e-01
1.334870e-01
1.451100e-01
1.592730e-01
1.759750e-01
1.952170e-01
1.814690e-01
1.961290e-01
2.137050e-01
2.341990e-01
2.576100e-01
2.169430e-01
2.327900e-01
2.513360e-01
2.725810e-01
2.965260e-01
0.000000e+00
0.000000e+00
0.000000e+00
0.000000e+00
0.000000e+00
1.093470e-01
1.205430e-01
1.338990e-01
1.494130e-01
1.670850e-01
1.952170e-01
2.141440e-01
2.364900e-01
2.622550e-01
2.914390e-01
2.576100e-01
2.808020e-01
3.077740e-01
3.385270e-01
3.730600e-01
2.965260e-01
3.205170e-01
3.477510e-01
3.782290e-01
4.119500e-01
0.000000e+00
0.000000e+00
0.000000e+00
0.000000e+00
0.000000e+00
1.670850e-01
1.859980e-01
2.057840e-01
2.264420e-01
2.479710e-01
2.914390e-01
3.229250e-01
3.558280e-01
3.901480e-01
4.258850e-01
3.730600e-01
4.107800e-01
4.501340e-01
4.911210e-01
5.337410e-01
4.119500e-01
4.495630e-01
4.887000e-01
5.293590e-01
5.715400e-01
0.000000e+00
0.000000e+00
0.000000e+00
0.000000e+00
0.000000e+00
2.479710e-01
2.750410e-01
2.985570e-01
3.185210e-01
3.349330e-01
4.258850e-01
4.709850e-01
5.109310e-01
5.457230e-01
5.753620e-01
5.337410e-01
5.878330e-01
6.371210e-01
6.816050e-01
7.212860e-01
5.715400e-01
6.255840e-01
6.771270e-01
7.261680e-01
7.727070e-01
0.000000e+00
0.000000e+00
0.000000e+00
0.000000e+00
0.000000e+00
3.349330e-01
3.533960e-01
3.643490e-01
3.677940e-01
3.637300e-01
5.753620e-01
6.090620e-01
6.314510e-01
6.425270e-01
6.422920e-01
7.212860e-01
7.670000e-01
8.013040e-01
8.241990e-01
8.356850e-01
7.727070e-01
8.272080e-01
8.739090e-01
9.128100e-01
9.439100e-01
0.000000e+00
0.000000e+00
0.000000e+00
0.000000e+00
0.000000e+00
3.637300e-01
3.427610e-01
3.168140e-01
2.858900e-01
2.499880e-01
6.422920e-01
6.157030e-01
5.797920e-01
5.345600e-01
4.800060e-01
8.356850e-01
8.188260e-01
7.889340e-01
7.460100e-01
6.900540e-01
9.439100e-01
9.521300e-01
9.442400e-01
9.202410e-01
8.801310e-01
0.000000e+00
0.000000e+00
0.000000e+00
0.000000e+00
0.000000e+00
2.499880e-01
2.050570e-01
1.640570e-01
1.269880e-01
9.385070e-02
4.800060e-01
4.059020e-01
3.351450e-01
2.677330e-01
2.036660e-01
6.900540e-01
6.025380e-01
5.132640e-01
4.222340e-01
3.294460e-01
8.801310e-01
7.949620e-01
6.984160e-01
5.904920e-01
4.711910e-01
0.000000e+00
0.000000e+00
0.000000e+00
0.000000e+00
0.000000e+00
9.385070e-02
7.114420e-02
4.901990e-02
2.747790e-02
6.518070e-03
2.036660e-01
1.572930e-01
1.135150e-01
7.232950e-02
3.373840e-02
3.294460e-01
2.584480e-01
1.934840e-01
1.345550e-01
8.166090e-02
4.711910e-01
3.746070e-01
2.889280e-01
2.141540e-01
1.502860e-01
0.000000e+00
0.000000e+00
0.000000e+00
0.000000e+00
0.000000e+00
6.518070e-03
-7.379900e-03
-1.514860e-02
-1.678800e-02
-1.229820e-02
3.373840e-02
8.119460e-03
-6.733700e-03
-1.082110e-02
-4.142770e-03
8.166090e-02
4.649810e-02
2.524470e-02
1.790070e-02
2.446620e-02
1.502860e-01
1.077560e-01
8.078660e-02
6.937750e-02
7.352870e-02
0.000000e+00
0.000000e+00
0.000000e+00
0.000000e+00
0.000000e+00
-1.229820e-02
-1.032700e-02
-6.632380e-03
-1.214440e-03
5.926860e-03
-4.142770e-03
-1.259970e-03
4.357470e-03
1.270950e-02
2.379630e-02
2.446620e-02
2.720090e-02
3.296950e-02
4.177190e-02
5.360820e-02
7.352870e-02
7.505580e-02
7.920380e-02
8.597270e-02
9.536260e-02
0.000000e+00
0.000000e+00
0.000000e+00
0.000000e+00
0.000000e+00
5.926860e-03
1.085450e-02
1.473380e-02
1.756470e-02
1.934720e-02
2.379630e-02
3.132280e-02
3.707090e-02
4.104080e-02
4.323240e-02
5.360820e-02
6.140480e-02
6.701160e-02
7.042850e-02
7.165550e-02
9.536260e-02
1.011010e-01
1.045560e-01
1.057280e-01
1.046170e-01
0.000000e+00
0.000000e+00
0.000000e+00
0.000000e+00
0.000000e+00
1.934720e-02
2.130310e-02
2.247770e-02
2.287110e-02
2.248310e-02
4.323240e-02
4.578300e-02
4.712410e-02
4.725560e-02
4.617770e-02
7.165550e-02
7.343970e-02
7.393910e-02
7.315380e-02
7.108360e-02
1.046170e-01
1.042730e-01
1.029230e-01
1.005650e-01
9.720100e-02
0.000000e+00
0.000000e+00
0.000000e+00
0.000000e+00
0.000000e+00
2.248310e-02
2.285390e-02
2.204280e-02
2.004990e-02
1.687510e-02
4.617770e-02
4.607420e-02
4.438350e-02
4.110560e-02
3.624040e-02
7.108360e-02
6.966100e-02
6.702220e-02
6.316720e-02
5.809590e-02
9.720100e-02
9.361430e-02
8.995880e-02
8.623460e-02
8.244160e-02
1.002660e-01
1.093110e-01
1.146870e-01
1.163930e-01
1.144300e-01
9.945850e-02
1.076910e-01
1.135920e-01
1.171620e-01
1.184000e-01
9.848610e-02
1.057280e-01
1.116740e-01
1.163260e-01
1.196820e-01
9.734850e-02
1.034210e-01
1.089330e-01
1.138850e-01
1.182760e-01
9.604590e-02
1.007720e-01
1.053700e-01
1.098400e-01
1.141830e-01
1.144300e-01
1.108030e-01
1.074150e-01
1.042680e-01
1.013610e-01
1.184000e-01
1.175290e-01
1.163080e-01
1.147370e-01
1.128170e-01
1.196820e-01
1.209040e-01
1.213970e-01
1.211600e-01
1.201930e-01
1.182760e-01
1.209290e-01
1.226820e-01
1.235360e-01
1.234890e-01
1.141830e-01
1.176040e-01
1.201650e-01
1.218650e-01
1.227040e-01
1.013610e-01
9.966490e-02
9.891910e-02
9.912370e-02
1.002790e-01
1.128170e-01
1.116190e-01
1.112980e-01
1.118530e-01
1.132840e-01
1.201930e-01
1.195630e-01
1.196920e-01
1.205800e-01
1.222280e-01
1.234890e-01
1.234940e-01
1.241000e-01
1.253040e-01
1.271090e-01
1.227040e-01
1.234150e-01
1.245220e-01
1.260260e-01
1.279270e-01
1.002790e-01
1.018740e-01
1.040790e-01
1.068940e-01
1.103190e-01
1.132840e-01
1.152420e-01
1.178110e-01
1.209910e-01
1.247820e-01
1.222280e-01
1.244410e-01
1.272500e-01
1.306550e-01
1.346550e-01
1.271090e-01
1.294700e-01
1.323960e-01
1.358850e-01
1.399370e-01
1.279270e-01
1.303300e-01
1.332480e-01
1.366810e-01
1.406290e-01
1.103190e-01
1.143020e-01
1.190310e-01
1.245070e-01
1.307290e-01
1.247820e-01
1.291070e-01
1.341860e-01
1.400180e-01
1.466030e-01
1.346550e-01
1.391590e-01
1.444010e-01
1.503820e-01
1.571020e-01
1.399370e-01
1.444570e-01
1.496780e-01
1.556000e-01
1.622240e-01
1.406290e-01
1.450010e-01
1.500150e-01
1.556720e-01
1.619710e-01
1.307290e-01
1.375610e-01
1.454460e-01
1.543840e-01
1.643750e-01
1.466030e-01
1.537760e-01
1.619790e-01
1.712090e-01
1.814690e-01
1.571020e-01
1.643740e-01
1.726350e-01
1.818840e-01
1.921200e-01
1.622240e-01
1.693540e-01
1.774150e-01
1.864070e-01
1.963290e-01
1.619710e-01
1.687160e-01
1.763190e-01
1.847780e-01
1.940950e-01
1.643750e-01
1.749560e-01
1.872450e-01
2.012410e-01
2.169430e-01
1.814690e-01
1.921980e-01
2.045810e-01
2.186170e-01
2.343080e-01
1.921200e-01
2.027250e-01
2.149160e-01
2.286920e-01
2.440530e-01
1.963290e-01
2.065390e-01
2.182500e-01
2.314640e-01
2.461790e-01
1.940950e-01
2.036380e-01
2.145850e-01
2.269340e-01
2.406860e-01
2.169430e-01
2.327900e-01
2.513360e-01
2.725810e-01
2.965260e-01
2.343080e-01
2.498610e-01
2.681080e-01
2.890480e-01
3.126810e-01
2.440530e-01
2.590400e-01
2.767120e-01
2.970690e-01
3.201100e-01
2.461790e-01
2.603270e-01
2.771490e-01
2.966440e-01
3.188120e-01
2.406860e-01
2.537220e-01
2.694180e-01
2.877730e-01
3.087880e-01
2.965260e-01
3.205170e-01
3.477510e-01
3.782290e-01
4.119500e-01
3.126810e-01
3.358250e-01
3.624580e-01
3.925800e-01
4.261930e-01
3.201100e-01
3.421120e-01
3.678700e-01
3.973830e-01
4.306510e-01
3.188120e-01
3.393810e-01
3.639890e-01
3.926360e-01
4.253240e-01
3.087880e-01
3.276290e-01
3.508130e-01
3.783410e-01
4.102120e-01
4.119500e-01
4.495630e-01
4.887000e-01
5.293590e-01
5.715400e-01
4.261930e-01
4.631780e-01
5.023180e-01
5.436140e-01
5.870660e-01
4.306510e-01
4.666900e-01
5.054590e-01
5.469570e-01
5.911840e-01
4.253240e-01
4.601010e-01
4.981220e-01
5.393860e-01
5.838940e-01
4.102120e-01
4.434100e-01
4.803070e-01
5.209020e-01
5.651960e-01
5.715400e-01
6.255840e-01
6.771270e-01
7.261680e-01
7.727070e-01
5.870660e-01
6.442030e-01
6.990520e-01
7.516130e-01
8.018850e-01
5.911840e-01
6.507690e-01
7.082680e-01
7.636800e-01
8.170060e-01
5.838940e-01
6.452820e-01
7.047730e-01
7.623690e-01
8.180690e-01
5.651960e-01
6.277410e-01
6.885690e-01
7.476810e-01
8.050750e-01
7.727070e-01
8.272080e-01
8.739090e-01
9.128100e-01
9.439100e-01
8.018850e-01
8.649860e-01
9.198330e-01
9.664260e-01
1.004770e+00
8.170060e-01
8.878140e-01
9.499800e-01
1.003500e+00
1.048380e+00
8.180690e-01
8.956930e-01
9.643490e-01
1.024040e+00
1.074760e+00
8.050750e-01
8.886220e-01
9.629420e-01
1.028040e+00
1.083910e+00
9.439100e-01
9.521300e-01
9.442400e-01
9.202410e-01
8.801310e-01
1.004770e+00
1.023680e+00
1.028480e+00
1.019180e+00
9.957640e-01
1.048380e+00
1.075740e+00
1.090600e+00
1.092970e+00
1.082860e+00
1.074760e+00
1.108300e+00
1.130590e+00
1.141630e+00
1.141420e+00
1.083910e+00
1.121380e+00
1.148470e+00
1.165150e+00
1.171450e+00
8.801310e-01
7.949620e-01
6.984160e-01
5.904920e-01
4.711910e-01
9.957640e-01
9.297240e-01
8.462620e-01
7.453790e-01
6.270740e-01
1.082860e+00
1.031390e+00
9.604040e-01
8.698940e-01
7.598620e-01
1.141420e+00
1.099970e+00
1.040840e+00
9.640360e-01
8.695550e-01
1.171450e+00
1.135450e+00
1.087570e+00
1.027810e+00
9.561540e-01
4.711910e-01
3.746070e-01
2.889280e-01
2.141540e-01
1.502860e-01
6.270740e-01
5.106730e-01
4.061600e-01
3.135350e-01
2.327970e-01
7.598620e-01
6.355120e-01
5.206150e-01
4.151720e-01
3.191810e-01
8.695550e-01
7.491240e-01
6.322940e-01
5.190640e-01
4.094360e-01
9.561540e-01
8.515090e-01
7.411950e-01
6.252130e-01
5.035640e-01
1.502860e-01
1.077560e-01
8.078660e-02
6.937750e-02
7.352870e-02
2.327970e-01
1.802850e-01
1.442730e-01
1.247620e-01
1.217530e-01
3.191810e-01
2.560350e-01
2.102470e-01
1.818160e-01
1.707430e-01
4.094360e-01
3.350060e-01
2.787070e-01
2.405380e-01
2.205000e-01
5.035640e-01
4.171980e-01
3.496540e-01
3.009290e-01
2.710240e-01
7.352870e-02
7.505580e-02
7.920380e-02
8.597270e-02
9.536260e-02
1.217530e-01
1.185350e-01
1.188980e-01
1.228420e-01
1.303670e-01
1.707430e-01
1.614310e-01
1.567790e-01
1.567850e-01
1.614510e-01
2.205000e-01
2.037460e-01
1.928470e-01
1.878040e-01
1.886160e-01
2.710240e-01
2.454790e-01
2.271030e-01
2.158970e-01
2.118610e-01
9.536260e-02
1.011010e-01
1.045560e-01
1.057280e-01
1.046170e-01
1.303670e-01
1.341950e-01
1.355220e-01
1.343460e-01
1.306680e-01
1.614510e-01
1.630240e-01
1.620160e-01
1.584280e-01
1.522600e-01
1.886160e-01
1.875860e-01
1.840390e-01
1.779750e-01
1.693940e-01
2.118610e-01
2.078820e-01
2.015910e-01
1.929860e-01
1.820700e-01
1.046170e-01
1.042730e-01
1.029230e-01
1.005650e-01
9.720100e-02
1.306680e-01
1.284450e-01
1.253920e-01
1.215090e-01
1.167960e-01
1.522600e-01
1.481790e-01
1.435110e-01
1.382550e-01
1.324120e-01
1.693940e-01
1.634770e-01
1.572800e-01
1.508050e-01
1.440500e-01
1.820700e-01
1.743380e-01
1.667000e-01
1.591570e-01
1.517090e-01
9.720100e-02
9.361430e-02
8.995880e-02
8.623460e-02
8.244160e-02
1.167960e-01
1.120750e-01
1.075260e-01
1.031480e-01
9.894140e-02
1.324120e-01
1.267140e-01
1.214050e-01
1.164850e-01
1.119540e-01
1.440500e-01
1.375310e-01
1.315960e-01
1.262460e-01
1.214800e-01
1.517090e-01
1.445250e-01
1.380980e-01
1.324290e-01
1.275190e-01
9.604590e-02
1.007720e-01
1.053700e-01
1.098400e-01
1.141830e-01
9.458900e-02
9.879140e-02
1.029150e-01
1.069590e-01
1.109240e-01
9.299440e-02
9.681760e-02
1.005490e-01
1.041890e-01
1.077370e-01
9.126190e-02
9.485000e-02
9.827240e-02
1.015290e-01
1.046200e-01
8.939170e-02
9.288880e-02
9.608490e-02
9.898000e-02
1.015740e-01
1.141830e-01
1.176040e-01
1.201650e-01
1.218650e-01
1.227040e-01
1.109240e-01
1.142900e-01
1.170010e-01
1.190550e-01
1.204540e-01
1.077370e-01
1.109280e-01
1.136550e-01
1.159190e-01
1.177190e-01
1.046200e-01
1.075160e-01
1.101280e-01
1.124560e-01
1.145000e-01
1.015740e-01
1.040550e-01
1.064200e-01
1.086670e-01
1.107970e-01
1.227040e-01
1.234150e-01
1.245220e-01
1.260260e-01
1.279270e-01
1.204540e-01
1.216680e-01
1.231610e-01
1.249340e-01
1.269880e-01
1.177190e-01
1.193270e-01
1.211240e-01
1.231120e-01
1.252910e-01
1.145000e-01
1.163920e-01
1.184120e-01
1.205600e-01
1.228370e-01
1.107970e-01
1.128630e-01
1.150230e-01
1.172770e-01
1.196250e-01
1.279270e-01
1.303300e-01
1.332480e-01
1.366810e-01
1.406290e-01
1.269880e-01
1.294510e-01
1.323810e-01
1.357780e-01
1.396420e-01
1.252910e-01
1.277990e-01
1.307280e-01
1.340770e-01
1.378460e-01
1.228370e-01
1.253760e-01
1.282900e-01
1.315790e-01
1.352420e-01
1.196250e-01
1.221800e-01
1.250660e-01
1.282830e-01
1.318290e-01
1.406290e-01
1.450010e-01
1.500150e-01
1.556720e-01
1.619710e-01
1.396420e-01
1.438920e-01
1.487420e-01
1.541910e-01
1.602390e-01
1.378460e-01
1.419630e-01
1.466350e-01
1.518640e-01
1.576490e-01
1.352420e-01
1.392130e-01
1.436960e-01
1.486920e-01
1.542000e-01
1.318290e-01
1.356430e-01
1.399250e-01
1.446740e-01
1.498920e-01
1.619710e-01
1.687160e-01
1.763190e-01
1.847780e-01
1.940950e-01
1.602390e-01
1.666770e-01
1.739290e-01
1.819950e-01
1.908750e-01
1.576490e-01
1.637650e-01
1.706490e-01
1.783000e-01
1.867200e-01
1.542000e-01
1.599790e-01
1.664770e-01
1.736940e-01
1.816300e-01
1.498920e-01
1.553200e-01
1.614140e-01
1.681750e-01
1.756030e-01
1.940950e-01
2.036380e-01
2.145850e-01
2.269340e-01
2.406860e-01
1.908750e-01
1.999290e-01
2.103260e-01
2.220640e-01
2.351450e-01
1.867200e-01
1.952510e-01
2.050550e-01
2.161310e-01
2.284800e-01
1.816300e-01
1.896040e-01
1.987720e-01
2.091350e-01
2.206920e-01
1.756030e-01
1.829870e-01
1.914780e-01
2.010760e-01
2.117800e-01
2.406860e-01
2.537220e-01
2.694180e-01
2.877730e-01
3.087880e-01
2.351450e-01
2.473790e-01
2.622780e-01
2.798420e-01
3.000720e-01
2.284800e-01
2.398570e-01
2.538560e-01
2.704760e-01
2.897180e-01
2.206920e-01
2.311580e-01
2.441530e-01
2.596750e-01
2.777260e-01
2.117800e-01
2.212810e-01
2.331670e-01
2.474390e-01
2.640950e-01
3.087880e-01
3.276290e-01
3.508130e-01
3.783410e-01
4.102120e-01
3.000720e-01
3.173010e-01
3.393230e-01
3.661390e-01
3.977490e-01
2.897180e-01
3.051370e-01
3.257300e-01
3.514990e-01
3.824420e-01
2.777260e-01
2.911370e-01
3.100350e-01
3.344190e-01
3.642900e-01
2.640950e-01
2.753010e-01
2.922360e-01
3.149000e-01
3.432930e-01
4.102120e-01
4.434100e-01
4.803070e-01
5.209020e-01
5.651960e-01
3.977490e-01
4.292130e-01
4.647240e-01
5.042830e-01
5.478890e-01
3.824420e-01
4.110640e-01
4.442610e-01
4.820330e-01
5.243800e-01
3.642900e-01
3.889640e-01
4.189190e-01
4.541540e-01
4.946700e-01
3.432930e-01
3.629130e-01
3.886970e-01
4.206460e-01
4.587580e-01
5.651960e-01
6.277410e-01
6.885690e-01
7.476810e-01
8.050750e-01
5.478890e-01
6.112600e-01
6.724100e-01
7.313410e-01
7.880520e-01
5.243800e-01
5.872950e-01
6.468590e-01
7.030740e-01
7.559380e-01
4.946700e-01
5.558460e-01
6.119160e-01
6.628780e-01
7.087340e-01
4.587580e-01
5.169150e-01
5.675800e-01
6.107550e-01
6.464390e-01
8.050750e-01
8.886220e-01
9.629420e-01
1.028040e+00
1.083910e+00
7.880520e-01
8.755230e-01
9.532340e-01
1.021190e+00
1.079380e+00
7.559380e-01
8.464030e-01
9.263250e-01
9.957050e-01
1.054540e+00
7.087340e-01
8.012630e-01
8.822160e-01
9.515920e-01
1.009390e+00
6.464390e-01
7.401020e-01
8.209050e-01
8.888480e-01
9.439310e-01
1.083910e+00
1.121380e+00
1.148470e+00
1.165150e+00
1.171450e+00
1.079380e+00
1.120690e+00
1.153160e+00
1.176780e+00
1.191550e+00
1.054540e+00
1.098240e+00
1.134670e+00
1.163830e+00
1.185730e+00
1.009390e+00
1.054030e+00
1.093010e+00
1.126330e+00
1.153990e+00
9.439310e-01
9.880530e-01
1.028160e+00
1.064250e+00
1.096330e+00
1.171450e+00
1.135450e+00
1.087570e+00
1.027810e+00
9.561540e-01
1.191550e+00
1.156600e+00
1.112650e+00
1.059680e+00
9.977040e-01
1.185730e+00
1.152490e+00
1.113180e+00
1.067800e+00
1.016350e+00
1.153990e+00
1.123120e+00
1.089190e+00
1.052180e+00
1.012090e+00
1.096330e+00
1.068500e+00
1.040650e+00
1.012800e+00
9.849320e-01
9.561540e-01
8.515090e-01
7.411950e-01
6.252130e-01
5.035640e-01
9.977040e-01
9.087170e-01
8.100230e-01
7.016210e-01
5.835130e-01
1.016350e+00
9.413850e-01
8.543330e-01
7.551950e-01
6.439700e-01
1.012090e+00
9.495130e-01
8.741270e-01
7.859340e-01
6.849350e-01
9.849320e-01
9.331010e-01
8.694030e-01
7.938390e-01
7.064090e-01
5.035640e-01
4.171980e-01
3.496540e-01
3.009290e-01
2.710240e-01
5.835130e-01
4.930540e-01
4.193850e-01
3.625040e-01
3.224120e-01
6.439700e-01
5.540460e-01
4.779110e-01
4.155660e-01
3.670090e-01
6.849350e-01
6.001740e-01
5.252340e-01
4.601140e-01
4.048160e-01
7.064090e-01
6.314380e-01
5.613510e-01
4.961500e-01
4.358330e-01
2.710240e-01
2.454790e-01
2.271030e-01
2.158970e-01
2.118610e-01
3.224120e-01
2.886720e-01
2.625310e-01
2.439900e-01
2.330470e-01
3.670090e-01
3.263570e-01
2.934160e-01
2.681860e-01
2.506660e-01
4.048160e-01
3.585330e-01
3.197570e-01
2.884850e-01
2.647190e-01
4.358330e-01
3.852010e-01
3.415530e-01
3.048880e-01
2.752060e-01
2.118610e-01
2.078820e-01
2.015910e-01
1.929860e-01
1.820700e-01
2.330470e-01
2.251780e-01
2.156260e-01
2.043910e-01
1.914720e-01
2.506660e-01
2.390990e-01
2.265380e-01
2.129830e-01
1.984340e-01
2.647190e-01
2.496450e-01
2.343270e-01
2.187630e-01
2.029560e-01
2.752060e-01
2.568170e-01
2.389920e-01
2.217320e-01
2.050370e-01
1.820700e-01
1.743380e-01
1.667000e-01
1.591570e-01
1.517090e-01
1.914720e-01
1.819250e-01
1.729020e-01
1.644040e-01
1.564310e-01
1.984340e-01
1.873380e-01
1.771560e-01
1.678870e-01
1.595310e-01
2.029560e-01
1.905780e-01
1.794620e-01
1.696050e-01
1.610090e-01
2.050370e-01
1.916450e-01
1.798200e-01
1.695600e-01
1.608650e-01
1.517090e-01
1.445250e-01
1.380980e-01
1.324290e-01
1.275190e-01
1.564310e-01
1.488080e-01
1.420760e-01
1.362360e-01
1.312870e-01
1.595310e-01
1.516090e-01
1.446830e-01
1.387540e-01
1.338200e-01
1.610090e-01
1.529280e-01
1.459190e-01
1.399820e-01
1.351160e-01
1.608650e-01
1.527660e-01
1.457840e-01
1.399210e-01
1.351760e-01
8.939170e-02
9.288880e-02
9.608490e-02
9.898000e-02
1.015740e-01
8.740010e-02
9.065020e-02
9.360170e-02
9.625450e-02
9.860870e-02
8.530680e-02
8.830740e-02
9.102340e-02
9.345480e-02
9.560150e-02
8.311190e-02
8.586030e-02
8.834990e-02
9.058070e-02
9.255270e-02
8.081530e-02
8.330890e-02
8.558130e-02
8.763230e-02
8.946210e-02
1.015740e-01
1.040550e-01
1.064200e-01
1.086670e-01
1.107970e-01
9.860870e-02
1.008170e-01