<?xml version="1.0"?>
<VTKFile type="UnstructuredGrid" version="0.1" byte_order="LittleEndian" compressor="vtkZLibDataCompressor">
<UnstructuredGrid>
<Piece NumberOfPoints="10000" NumberOfCells="6400">
<Points>
<DataArray type="Float32" NumberOfComponents="3" format="ascii">
-3.360000e+00 0.000000e+00 0.000000e+00
-3.276000e+00 0.000000e+00 0.000000e+00
-3.192000e+00 0.000000e+00 0.000000e+00
-3.108000e+00 0.000000e+00 0.000000e+00
-3.024000e+00 0.000000e+00 0.000000e+00
-3.360000e+00 6.412500e-02 0.000000e+00
-3.276000e+00 6.412500e-02 0.000000e+00
-3.192000e+00 6.412500e-02 0.000000e+00
-3.108000e+00 6.412500e-02 0.000000e+00
-3.024000e+00 6.412500e-02 0.000000e+00
-3.360000e+00 1.282500e-01 0.000000e+00
-3.276000e+00 1.282500e-01 0.000000e+00
-3.192000e+00 1.282500e-01 0.000000e+00
-3.108000e+00 1.282500e-01 0.000000e+00
-3.024000e+00 1.282500e-01 0.000000e+00
-3.360000e+00 1.923750e-01 0.000000e+00
-3.276000e+00 1.923750e-01 0.000000e+00
-3.192000e+00 1.923750e-01 0.000000e+00
-3.108000e+00 1.923750e-01 0.000000e+00
-3.024000e+00 1.923750e-01 0.000000e+00
-3.360000e+00 2.565000e-01 0.000000e+00
-3.276000e+00 2.565000e-01 0.000000e+00
-3.192000e+00 2.565000e-01 0.000000e+00
-3.108000e+00 2.565000e-01 0.000000e+00
-3.024000e+00 2.565000e-01 0.000000e+00
-3.024000e+00 0.000000e+00 0.000000e+00
-2.940000e+00 0.000000e+00 0.000000e+00
-2.856000e+00 0.000000e+00 0.000000e+00
-2.772000e+00 0.000000e+00 0.000000e+00
-2.688000e+00 0.000000e+00 0.000000e+00
-3.024000e+00 6.412500e-02 0.000000e+00
-2.940000e+00 6.412500e-02 0.000000e+00
-2.856000e+00 6.412500e-02 0.000000e+00
-2.772000e+00 6.412500e-02 0.000000e+00
-2.688000e+00 6.412500e-02 0.000000e+00
-3.024000e+00 1.282500e-01 0.000000e+00
-2.940000e+00 1.282500e-01 0.000000e+00
-2.856000e+00 1.282500e-01 0.000000e+00
-2.772000e+00 1.282500e-01 0.000000e+00
-2.688000e+00 1.282500e-01 0.000000e+00
-3.024000e+00 1.923750e-01 0.000000e+00
-2.940000e+00 1.923750e-01 0.000000e+00
-2.856000e+00 1.923750e-01 0.000000e+00
-2.772000e+00 1.923750e-01 0.000000e+00
-2.688000e+00 1.923750e-01 0.000000e+00
-3.024000e+00 2.565000e-01 0.000000e+00
-2.940000e+00 2.565000e-01 0.000000e+00
-2.856000e+00 2.565000e-01 0.000000e+00
-2.772000e+00 2.565000e-01 0.000000e+00
-2.688000e+00 2.565000e-01 0.000000e+00
-2.688000e+00 0.000000e+00 0.000000e+00
-2.604000e+00 0.000000e+00 0.000000e+00
-2.520000e+00 0.000000e+00 0.000000e+00
-2.436000e+00 0.000000e+00 0.000000e+00
-2.352000e+00 0.000000e+00 0.000000e+00
-2.688000e+00 6.412500e-02 0.000000e+00
-2.604000e+00 6.412500e-02 0.000000e+00
-2.520000e+00 6.412500e-02 0.000000e+00
-2.436000e+00 6.412500e-02 0.000000e+00
-2.352000e+00 6.412500e-02 0.000000e+00
-2.688000e+00 1.282500e-01 0.000000e+00
-2.604000e+00 1.282500e-01 0.000000e+00
-2.520000e+00 1.282500e-01 0.000000e+00
-2.436000e+00 1.282500e-01 0.000000e+00
-2.352000e+00 1.282500e-01 0.000000e+00
-2.688000e+00 1.923750e-01 0.000000e+00
-2.604000e+00 1.923750e-01 0.000000e+00
-2.520000e+00 1.923750e-01 0.000000e+00
-2.436000e+00 1.923750e-01 0.000000e+00
-2.352000e+00 1.923750e-01 0.000000e+00
-2.688000e+00 2.565000e-01 0.000000e+00
-2.604000e+00 2.565000e-01 0.000000e+00
-2.520000e+00 2.565000e-01 0.000000e+00
-2.436000e+00 2.565000e-01 0.000000e+00
-2.352000e+00 2.565000e-01 0.000000e+00
-2.352000e+00 0.000000e+00 0.000000e+00
-2.268000e+00 0.000000e+00 0.000000e+00
-2.184000e+00 0.000000e+00 0.000000e+00
-2.100000e+00 0.000000e+00 0.000000e+00
-2.016000e+00 0.000000e+00 0.000000e+00
-2.352000e+00 6.412500e-02 0.000000e+00
-2.268000e+00 6.412500e-02 0.000000e+00
-2.184000e+00 6.412500e-02 0.000000e+00
-2.100000e+00 6.412500e-02 0.000000e+00
-2.016000e+00 6.412500e-02 0.000000e+00
-2.352000e+00 1.282500e-01 0.000000e+00
-2.268000e+00 1.282500e-01 0.000000e+00
-2.184000e+00 1.282500e-01 0.000000e+00
-2.100000e+00 1.282500e-01 0.000000e+00
-2.016000e+00 1.282500e-01 0.000000e+00
-2.352000e+00 1.923750e-01 0.000000e+00
-2.268000e+00 1.923750e-01 0.000000e+00
-2.184000e+00 1.923750e-01 0.000000e+00
-2.100000e+00 1.923750e-01 0.000000e+00
-2.016000e+00 1.923750e-01 0.000000e+00
-2.352000e+00 2.565000e-01 0.000000e+00
-2.268000e+00 2.565000e-01 0.000000e+00
-2.184000e+00 2.565000e-01 0.000000e+00
-2.100000e+00 2.565000e-01 0.000000e+00
-2.016000e+00 2.565000e-01 0.000000e+00
-2.016000e+00 0.000000e+00 0.000000e+00
-1.932000e+00 0.000000e+00 0.000000e+00
-1.848000e+00 0.000000e+00 0.000000e+00
-1.764000e+00 0.000000e+00 0.000000e+00
-1.680000e+00 0.000000e+00 0.000000e+00
-2.016000e+00 6.412500e-02 0.000000e+00
-1.932000e+00 6.412500e-02 0.000000e+00
-1.848000e+00 6.412500e-02 0.000000e+00
-1.764000e+00 6.412500e-02 0.000000e+00
-1.680000e+00 6.412500e-02 0.000000e+00
-2.016000e+00 1.282500e-01 0.000000e+00
-1.932000e+00 1.282500e-01 0.000000e+00
-1.848000e+00 1.282500e-01 0.000000e+00
-1.764000e+00 1.282500e-01 0.000000e+00
-1.680000e+00 1.282500e-01 0.000000e+00
-2.016000e+00 1.923750e-01 0.000000e+00
-1.932000e+00 1.923750e-01 0.000000e+00
-1.848000e+00 1.923750e-01 0.000000e+00
-1.764000e+00 1.923750e-01 0.000000e+00
-1.680000e+00 1.923750e-01 0.000000e+00
-2.016000e+00 2.565000e-01 0.000000e+00
-1.932000e+00 2.565000e-01 0.000000e+00
-1.848000e+00 2.565000e-01 0.000000e+00
-1.764000e+00 2.565000e-01 0.000000e+00
-1.680000e+00 2.565000e-01 0.000000e+00
-1.680000e+00 0.000000e+00 0.000000e+00
-1.596000e+00 0.000000e+00 0.000000e+00
-1.512000e+00 0.000000e+00 0.000000e+00
-1.428000e+00 0.000000e+00 0.000000e+00
-1.344000e+00 0.000000e+00 0.000000e+00
-1.680000e+00 6.412500e-02 0.000000e+00
-1.596000e+00 6.412500e-02 0.000000e+00
-1.512000e+00 6.412500e-02 0.000000e+00
-1.428000e+00 6.412500e-02 0.000000e+00
-1.344000e+00 6.412500e-02 0.000000e+00
-1.680000e+00 1.282500e-01 0.000000e+00
-1.596000e+00 1.282500e-01 0.000000e+00
-1.512000e+00 1.282500e-01 0.000000e+00
-1.428000e+00 1.282500e-01 0.000000e+00
-1.344000e+00 1.282500e-01 0.000000e+00
-1.680000e+00 1.923750e-01 0.000000e+00
-1.596000e+00 1.923750e-01 0.000000e+00
-1.512000e+00 1.923750e-01 0.000000e+00
-1.428000e+00 1.923750e-01 0.000000e+00
-1.344000e+00 1.923750e-01 0.000000e+00
-1.680000e+00 2.565000e-01 0.000000e+00
-1.596000e+00 2.565000e-01 0.000000e+00
-1.512000e+00 2.565000e-01 0.000000e+00
-1.428000e+00 2.565000e-01 0.000000e+00
-1.344000e+00 2.565000e-01 0.000000e+00
-1.344000e+00 0.000000e+00 0.000000e+00
-1.260000e+00 0.000000e+00 0.000000e+00
-1.176000e+00 0.000000e+00 0.000000e+00
-1.092000e+00 0.000000e+00 0.000000e+00
-1.008000e+00 0.000000e+00 0.000000e+00
-1.344000e+00 6.412500e-02 0.000000e+00
-1.260000e+00 6.412500e-02 0.000000e+00
-1.176000e+00 6.412500e-02 0.000000e+00
-1.092000e+00 6.412500e-02 0.000000e+00
-1.008000e+00 6.412500e-02 0.000000e+00
-1.344000e+00 1.282500e-01 0.000000e+00
-1.260000e+00 1.282500e-01 0.000000e+00
-1.176000e+00 1.282500e-01 0.000000e+00
-1.092000e+00 1.282500e-01 0.000000e+00
-1.008000e+00 1.282500e-01 0.000000e+00
-1.344000e+00 1.923750e-01 0.000000e+00
-1.260000e+00 1.923750e-01 0.000000e+00
-1.176000e+00 1.923750e-01 0.000000e+00
-1.092000e+00 1.923750e-01 0.000000e+00
-1.008000e+00 1.923750e-01 0.000000e+00
-1.344000e+00 2.565000e-01 0.000000e+00
-1.260000e+00 2.565000e-01 0.000000e+00
-1.176000e+00 2.565000e-01 0.000000e+00
-1.092000e+00 2.565000e-01 0.000000e+00
-1.008000e+00 2.565000e-01 0.000000e+00
-1.008000e+00 0.000000e+00 0.000000e+00
-9.240000e-01 0.000000e+00 0.000000e+00
-8.400000e-01 0.000000e+00 0.000000e+00
-7.560000e-01 0.000000e+00 0.000000e+00
-6.720000e-01 0.000000e+00 0.000000e+00
-1.008000e+00 6.412500e-02 0.000000e+00
-9.240000e-01 6.412500e-02 0.000000e+00
-8.400000e-01 6.412500e-02 0.000000e+00
-7.560000e-01 6.412500e-02 0.000000e+00
-6.720000e-01 6.412500e-02 0.000000e+00
-1.008000e+00 1.282500e-01 0.000000e+00
-9.240000e-01 1.282500e-01 0.000000e+00
-8.400000e-01 1.282500e-01 0.000000e+00
-7.560000e-01 1.282500e-01 0.000000e+00
-6.720000e-01 1.282500e-01 0.000000e+00
-1.008000e+00 1.923750e-01 0.000000e+00
-9.240000e-01 1.923750e-01 0.000000e+00
-8.400000e-01 1.923750e-01 0.000000e+00
-7.560000e-01 1.923750e-01 0.000000e+00
-6.720000e-01 1.923750e-01 0.000000e+00
-1.008000e+00 2.565000e-01 0.000000e+00
-9.240000e-01 2.565000e-01 0.000000e+00
-8.400000e-01 2.565000e-01 0.000000e+00
-7.560000e-01 2.565000e-01 0.000000e+00
-6.720000e-01 2.565000e-01 0.000000e+00
-6.720000e-01 0.000000e+00 0.000000e+00
-5.880000e-01 0.000000e+00 0.000000e+00
-5.040000e-01 0.000000e+00 0.000000e+00
-4.200000e-01 0.000000e+00 0.000000e+00
-3.360000e-01 0.000000e+00 0.000000e+00
-6.720000e-01 6.412500e-02 0.000000e+00
-5.880000e-01 6.412500e-02 0.000000e+00
-5.040000e-01 6.412500e-02 0.000000e+00
-4.200000e-01 6.412500e-02 0.000000e+00
-3.360000e-01 6.412500e-02 0.000000e+00
-6.720000e-01 1.282500e-01 0.000000e+00
-5.880000e-01 1.282500e-01 0.000000e+00
-5.040000e-01 1.282500e-01 0.000000e+00
-4.200000e-01 1.282500e-01 0.000000e+00
-3.360000e-01 1.282500e-01 0.000000e+00
-6.720000e-01 1.923750e-01 0.000000e+00
-5.880000e-01 1.923750e-01 0.000000e+00
-5.040000e-01 1.923750e-01 0.000000e+00
-4.200000e-01 1.923750e-01 0.000000e+00
-3.360000e-01 1.923750e-01 0.000000e+00
-6.720000e-01 2.565000e-01 0.000000e+00
-5.880000e-01 2.565000e-01 0.000000e+00
-5.040000e-01 2.565000e-01 0.000000e+00
-4.200000e-01 2.565000e-01 0.000000e+00
-3.360000e-01 2.565000e-01 0.000000e+00
-3.360000e-01 0.000000e+00 0.000000e+00
-2.520000e-01 0.000000e+00 0.000000e+00
-1.680000e-01 0.000000e+00 0.000000e+00
-8.400000e-02 0.000000e+00 0.000000e+00
-4.440890e-16 0.000000e+00 0.000000e+00
-3.360000e-01 6.412500e-02 0.000000e+00
-2.520000e-01 6.412500e-02 0.000000e+00
-1.680000e-01 6.412500e-02 0.000000e+00
-8.400000e-02 6.412500e-02 0.000000e+00
-4.440890e-16 6.412500e-02 0.000000e+00
-3.360000e-01 1.282500e-01 0.000000e+00
-2.520000e-01 1.282500e-01 0.000000e+00
-1.680000e-01 1.282500e-01 0.000000e+00
-8.400000e-02 1.282500e-01 0.000000e+00
-4.440890e-16 1.282500e-01 0.000000e+00
-3.360000e-01 1.923750e-01 0.000000e+00
-2.520000e-01 1.923750e-01 0.000000e+00
-1.680000e-01 1.923750e-01 0.000000e+00
[...]
<PointData>
<DataArray type="Float32" Name="V1" format="ascii">
0.000000e+00
0.000000e+00
0.000000e+00
0.000000e+00
0.000000e+00
6.347820e-02
5.986490e-02
5.653420e-02
5.348630e-02
5.072110e-02
1.013490e-01
9.804570e-02
9.468610e-02
9.126990e-02
8.779710e-02
1.136110e-01
1.145420e-01
1.144560e-01
1.133510e-01
1.112280e-01
1.002660e-01
1.093550e-01
1.158430e-01
1.197290e-01
1.210130e-01
0.000000e+00
0.000000e+00
0.000000e+00
0.000000e+00
0.000000e+00
5.072110e-02
4.800360e-02
4.672170e-02
4.687540e-02
4.846470e-02
8.779710e-02
8.436950e-02
8.296620e-02
8.358710e-02
8.623220e-02
1.112280e-01
1.090980e-01
1.087330e-01
1.101350e-01
1.133030e-01
1.210130e-01
1.221880e-01
1.240230e-01
1.265190e-01
1.296760e-01
0.000000e+00
0.000000e+00
0.000000e+00
0.000000e+00
0.000000e+00
4.846470e-02
5.008170e-02
5.192260e-02
5.398740e-02
5.627620e-02
8.623220e-02
8.904940e-02
9.230670e-02
9.600410e-02
1.001420e-01
1.133030e-01
1.169030e-01
1.211520e-01
1.260500e-01
1.315960e-01
1.296760e-01
1.336430e-01
1.384600e-01
1.441250e-01
1.506400e-01
0.000000e+00
0.000000e+00
0.000000e+00
0.000000e+00
0.000000e+00
5.627620e-02
5.869420e-02
6.167870e-02
6.522980e-02
6.934750e-02
1.001420e-01
1.045180e-01
1.098140e-01
1.160290e-01
1.231650e-01
1.315960e-01
1.374710e-01
1.444050e-01
1.523990e-01
1.614520e-01
1.506400e-01
1.575540e-01
1.654530e-01
1.743370e-01
1.842080e-01
0.000000e+00
0.000000e+00
0.000000e+00
0.000000e+00
0.000000e+00
6.934750e-02
7.363470e-02
7.877070e-02
8.475540e-02
9.158890e-02
1.231650e-01
1.305870e-01
1.394200e-01
1.496660e-01
1.613230e-01
1.614520e-01
1.708560e-01
1.819490e-01
1.947310e-01
2.092020e-01
1.842080e-01
1.944430e-01
2.063570e-01
2.199520e-01
2.352260e-01
0.000000e+00
0.000000e+00
0.000000e+00
0.000000e+00
0.000000e+00
9.158890e-02
9.821000e-02
1.065520e-01
1.166150e-01
1.283980e-01
1.613230e-01
1.726170e-01
1.866950e-01
2.035590e-01
2.232070e-01
2.092020e-01
2.232210e-01
2.404310e-01
2.608320e-01
2.844240e-01
2.352260e-01
2.500210e-01
2.677570e-01
2.884340e-01
3.120520e-01
0.000000e+00
0.000000e+00
0.000000e+00
0.000000e+00
0.000000e+00
1.283980e-01
1.391740e-01
1.528540e-01
1.694400e-01
1.889320e-01
2.232070e-01
2.412520e-01
2.638810e-01
2.910940e-01
3.228900e-01
2.844240e-01
3.062340e-01
3.330800e-01
3.649600e-01
4.018760e-01
3.120520e-01
3.341210e-01
3.604500e-01
3.910390e-01
4.258880e-01
0.000000e+00
0.000000e+00
0.000000e+00
0.000000e+00
0.000000e+00
1.889320e-01
2.080660e-01
2.299520e-01
2.545900e-01
2.819800e-01
3.228900e-01
3.544400e-01
3.902400e-01
4.302900e-01
4.745900e-01
4.018760e-01
4.391230e-01
4.808640e-01
5.271000e-01
5.778300e-01
4.258880e-01
4.621150e-01
5.018260e-01
5.450210e-01
5.917000e-01
0.000000e+00
0.000000e+00
0.000000e+00
0.000000e+00
0.000000e+00
2.819800e-01
3.150920e-01
3.471420e-01
3.781320e-01
4.080610e-01
4.745900e-01
5.283810e-01
5.807740e-01
6.317690e-01
6.813660e-01
5.778300e-01
6.398680e-01
7.008950e-01
7.609110e-01
8.199150e-01
5.917000e-01
6.495530e-01
7.075060e-01
7.655570e-01
8.237070e-01
0.000000e+00
0.000000e+00
0.000000e+00
0.000000e+00
0.000000e+00
4.080610e-01
4.507970e-01
4.844460e-01
5.090070e-01
5.244820e-01
6.813660e-01
7.519100e-01
8.093740e-01
8.537580e-01
8.850610e-01
8.199150e-01
9.033390e-01
9.747850e-01
1.034250e+00
1.081740e+00
8.237070e-01
9.050840e-01
9.806780e-01
1.050490e+00
1.114510e+00
0.000000e+00
0.000000e+00
0.000000e+00
0.000000e+00
0.000000e+00
5.244820e-01
5.344000e-01
5.346810e-01
5.253240e-01
5.063290e-01
8.850610e-01
9.084510e-01
9.172090e-01
9.113350e-01
8.908290e-01
1.081740e+00
1.122150e+00
1.147580e+00
1.158030e+00
1.153500e+00
1.114510e+00
1.175500e+00
1.225810e+00
1.265420e+00
1.294340e+00
0.000000e+00
0.000000e+00
0.000000e+00
0.000000e+00
0.000000e+00
5.063290e-01
4.566160e-01
4.049230e-01
3.512520e-01
2.956000e-01
8.908290e-01
8.209910e-01
7.455300e-01
6.644460e-01
5.777380e-01
1.153500e+00
1.093130e+00
1.021820e+00
9.395830e-01
8.464140e-01
1.294340e+00
1.273020e+00
1.233800e+00
1.176660e+00
1.101630e+00
0.000000e+00
0.000000e+00
0.000000e+00
0.000000e+00
0.000000e+00
2.956000e-01
2.419440e-01
1.986220e-01
1.656350e-01
1.429830e-01
5.777380e-01
4.880860e-01
4.131630e-01
3.529700e-01
3.075060e-01
8.464140e-01
7.384260e-01
6.436220e-01
5.620030e-01
4.935680e-01
1.101630e+00
9.929640e-01
8.900000e-01
7.927350e-01
7.011690e-01
0.000000e+00
0.000000e+00
0.000000e+00
0.000000e+00
0.000000e+00
1.429830e-01
1.220510e-01
1.088540e-01
1.033900e-01
1.056600e-01
3.075060e-01
2.665370e-01
2.379960e-01
2.218840e-01
2.181990e-01
4.935680e-01
4.334560e-01
3.874270e-01
3.554820e-01
3.376190e-01
7.011690e-01
6.228100e-01
5.571480e-01
5.041840e-01
4.639180e-01
0.000000e+00
0.000000e+00
0.000000e+00
0.000000e+00
0.000000e+00
1.056600e-01
1.081780e-01
1.084730e-01
1.065450e-01
1.023930e-01
2.181990e-01
2.170460e-01
2.128910e-01
2.057350e-01
1.955760e-01
3.376190e-01
3.266040e-01
3.132540e-01
2.975700e-01
2.795510e-01
4.639180e-01
4.368510e-01
4.095620e-01
3.820510e-01
3.543180e-01
0.000000e+00
0.000000e+00
0.000000e+00
0.000000e+00
0.000000e+00
1.023930e-01
1.004680e-01
9.739680e-02
9.318000e-02
8.781730e-02
1.955760e-01
1.890470e-01
1.811760e-01
1.719630e-01
1.614090e-01
2.795510e-01
2.657370e-01
2.513360e-01
2.363490e-01
2.207760e-01
3.543180e-01
3.305390e-01
3.078790e-01
2.863380e-01
2.659170e-01
0.000000e+00
0.000000e+00
0.000000e+00
0.000000e+00
0.000000e+00
8.781730e-02
8.418430e-02
8.030980e-02
7.619390e-02
7.183660e-02
1.614090e-01
1.538200e-01
1.460420e-01
1.380770e-01
1.299240e-01
2.207760e-01
2.089070e-01
1.971980e-01
1.856490e-01
1.742610e-01
2.659170e-01
2.494450e-01
2.337760e-01
2.189110e-01
2.048500e-01
0.000000e+00
0.000000e+00
0.000000e+00
0.000000e+00
0.000000e+00
7.183660e-02
6.843920e-02
6.507140e-02
6.173300e-02
5.842410e-02
1.299240e-01
1.233550e-01
1.169640e-01
1.107510e-01
1.047150e-01
1.742610e-01
1.647460e-01
1.556770e-01
1.470530e-01
1.388740e-01
2.048500e-01
1.926140e-01
1.812110e-01
1.706390e-01
1.608990e-01
0.000000e+00
0.000000e+00
0.000000e+00
0.000000e+00
0.000000e+00
5.842410e-02
5.556510e-02
5.279290e-02
5.010730e-02
4.750850e-02
1.047150e-01
9.942980e-02
9.435850e-02
8.950140e-02
8.485860e-02
1.388740e-01
1.315940e-01
1.246970e-01
1.181820e-01
1.120510e-01
1.608990e-01
1.520580e-01
1.438080e-01
1.361500e-01
1.290840e-01
0.000000e+00
0.000000e+00
0.000000e+00
0.000000e+00
0.000000e+00
4.750850e-02
4.554300e-02
4.304430e-02
4.001220e-02
3.644680e-02
8.485860e-02
8.104790e-02
7.667260e-02
7.173290e-02
6.622860e-02
1.120510e-01
1.065150e-01
1.008850e-01
9.516190e-02
8.934530e-02
1.290840e-01
1.219430e-01
1.156810e-01
1.102990e-01
1.057970e-01
1.002660e-01
1.093550e-01
1.158430e-01
1.197290e-01
1.210130e-01
9.945850e-02
1.073770e-01
1.137200e-01
1.184870e-01
1.216790e-01
9.848610e-02
1.052100e-01
1.111350e-01
1.162620e-01
1.205910e-01
9.734850e-02
1.028530e-01
1.080870e-01
1.130520e-01
1.177470e-01
9.604590e-02
1.003060e-01
1.045770e-01
1.088580e-01
1.131480e-01
1.210130e-01
1.221880e-01
1.240230e-01
1.265190e-01
1.296760e-01
1.216790e-01
1.242790e-01
1.271920e-01
1.304180e-01
1.339580e-01
1.205910e-01
1.241800e-01
1.278460e-01
1.315890e-01
1.354080e-01
1.177470e-01
1.218920e-01
1.259860e-01
1.300310e-01
1.340260e-01
1.131480e-01
1.174130e-01
1.216130e-01
1.257450e-01
1.298120e-01
1.296760e-01
1.336430e-01
1.384600e-01
1.441250e-01
1.506400e-01
1.339580e-01
1.380730e-01
1.430190e-01
1.487960e-01
1.554030e-01
1.354080e-01
1.396400e-01
1.446550e-01
1.504530e-01
1.570330e-01
1.340260e-01
1.383450e-01
1.433680e-01
1.490960e-01
1.555290e-01
1.298120e-01
1.341860e-01
1.391580e-01
1.447260e-01
1.508910e-01
1.506400e-01
1.575540e-01
1.654530e-01
1.743370e-01
1.842080e-01
1.554030e-01
1.624440e-01
1.704420e-01
1.793980e-01
1.893110e-01
1.570330e-01
1.640600e-01
1.720080e-01
1.808750e-01
1.906630e-01
1.555290e-01
1.624020e-01
1.701480e-01
1.787700e-01
1.882650e-01
1.508910e-01
1.574680e-01
1.648650e-01
1.730810e-01
1.821160e-01
1.842080e-01
1.944430e-01
2.063570e-01
2.199520e-01
2.352260e-01
1.893110e-01
1.995040e-01
2.113360e-01
2.248100e-01
2.399230e-01
1.906630e-01
2.006860e-01
2.122810e-01
2.254490e-01
2.401890e-01
1.882650e-01
1.979900e-01
2.091920e-01
2.218700e-01
2.360250e-01
1.821160e-01
1.914160e-01
2.020680e-01
2.140730e-01
2.274300e-01
2.352260e-01
2.500210e-01
2.677570e-01
2.884340e-01
3.120520e-01
2.399230e-01
2.543750e-01
2.717920e-01
2.921720e-01
3.155170e-01
2.401890e-01
2.542000e-01
2.711270e-01
2.909690e-01
3.137260e-01
2.360250e-01
2.494960e-01
2.657630e-01
2.848240e-01
3.066800e-01
2.274300e-01
2.402630e-01
2.556990e-01
2.737370e-01
2.943780e-01
3.120520e-01
3.341210e-01
3.604500e-01
3.910390e-01
4.258880e-01
3.155170e-01
3.366150e-01
3.623570e-01
3.927450e-01
4.277760e-01
3.137260e-01
3.337120e-01
3.586380e-01
3.885040e-01
4.233120e-01
3.066800e-01
3.254110e-01
3.492910e-01
3.783190e-01
4.124950e-01
2.943780e-01
3.117140e-01
3.343170e-01
3.621880e-01
3.953260e-01
4.258880e-01
4.621150e-01
5.018260e-01
5.450210e-01
5.917000e-01
4.277760e-01
4.625310e-01
5.018050e-01
5.455990e-01
5.939120e-01
4.233120e-01
4.561580e-01
4.945040e-01
5.383500e-01
5.876960e-01
4.124950e-01
4.429960e-01
4.799230e-01
5.232760e-01
5.730530e-01
3.953260e-01
4.230460e-01
4.580620e-01
5.003740e-01
5.499820e-01
5.917000e-01
6.495530e-01
7.075060e-01
7.655570e-01
8.237070e-01
5.939120e-01
6.539800e-01
7.144270e-01
7.752530e-01
8.364570e-01
5.876960e-01
6.489060e-01
7.109000e-01
7.736790e-01
8.372430e-01
5.730530e-01
6.343310e-01
6.969260e-01
7.608370e-01
8.260650e-01
5.499820e-01
6.102550e-01
6.725030e-01
7.367260e-01
8.029240e-01
8.237070e-01
9.050840e-01
9.806780e-01
1.050490e+00
1.114510e+00
8.364570e-01
9.244790e-01
1.005970e+00
1.080940e+00
1.149380e+00
8.372430e-01
9.322220e-01
1.020900e+00
1.103270e+00
1.179330e+00
8.260650e-01
9.283110e-01
1.025440e+00
1.117450e+00
1.204350e+00
8.029240e-01
9.127480e-01
1.019610e+00
1.123510e+00
1.224450e+00
1.114510e+00
1.175500e+00
1.225810e+00
1.265420e+00
1.294340e+00
1.149380e+00
1.223000e+00
1.283920e+00
1.332150e+00
1.367680e+00
1.179330e+00
1.266630e+00
1.338870e+00
1.396060e+00
1.438210e+00
1.204350e+00
1.306380e+00
1.390660e+00
1.457180e+00
1.505940e+00
1.224450e+00
1.342280e+00
1.439290e+00
1.515490e+00
1.570880e+00
1.294340e+00
1.273020e+00
1.233800e+00
1.176660e+00
1.101630e+00
1.367680e+00
1.346490e+00
1.313880e+00
1.269840e+00
1.214380e+00
1.438210e+00
1.411870e+00
1.378320e+00
1.337570e+00
1.289620e+00
1.505940e+00
1.469150e+00
1.427130e+00
1.379860e+00
1.327350e+00
1.570880e+00
1.518350e+00
1.460290e+00
1.396700e+00
1.327590e+00
1.101630e+00
9.929640e-01
8.900000e-01
7.927350e-01
7.011690e-01
1.214380e+00
1.122030e+00
1.029010e+00
9.353210e-01
8.409620e-01
1.289620e+00
1.206260e+00
1.119170e+00
1.028340e+00
9.337660e-01
1.327350e+00
1.245670e+00
1.160480e+00
1.071780e+00
9.795800e-01
1.327590e+00
1.240240e+00
1.152930e+00
1.065650e+00
9.784060e-01
7.011690e-01
6.228100e-01
5.571480e-01
5.041840e-01
4.639180e-01
8.409620e-01
7.543090e-01
6.766880e-01
6.080990e-01
5.485440e-01
9.337660e-01
8.435030e-01
7.585310e-01
6.788490e-01
6.044570e-01
9.795800e-01
8.903930e-01
8.026770e-01
7.164310e-01
6.316560e-01
9.784060e-01
8.949790e-01
8.091260e-01
7.208480e-01
6.301430e-01
4.639180e-01
4.368510e-01
4.095620e-01
3.820510e-01
3.543180e-01
5.485440e-01
5.064880e-01
4.664650e-01
4.284750e-01
3.925180e-01
6.044570e-01
5.513000e-01
5.019980e-01
4.565500e-01
4.149570e-01
6.316560e-01
5.712870e-01
5.161610e-01
4.662770e-01
4.216350e-01
6.301430e-01
5.664490e-01
5.089520e-01
4.576540e-01
4.125540e-01
3.543180e-01
3.305390e-01
3.078790e-01
2.863380e-01
2.659170e-01
3.925180e-01
3.621430e-01
3.340300e-01
3.081790e-01
2.845900e-01
4.149570e-01
3.799610e-01
3.481250e-01
3.194500e-01
2.939340e-01
4.216350e-01
3.839920e-01
3.501640e-01
3.201490e-01
2.939490e-01
4.125540e-01
3.742370e-01
3.401450e-01
3.102770e-01
2.846330e-01
2.659170e-01
2.494450e-01
2.337760e-01
2.189110e-01
2.048500e-01
2.845900e-01
2.659030e-01
2.483230e-01
2.318500e-01
2.164840e-01
2.939340e-01
2.740620e-01
2.554760e-01
2.381760e-01
2.221620e-01
2.939490e-01
2.739200e-01
2.552340e-01
2.378880e-01
2.218840e-01
2.846330e-01
2.654790e-01
2.475970e-01
2.309870e-01
2.156490e-01
2.048500e-01
1.926140e-01
1.812110e-01
1.706390e-01
1.608990e-01
2.164840e-01
2.030690e-01
1.906620e-01
1.792630e-01
1.688720e-01
2.221620e-01
2.080690e-01
1.951180e-01
1.833100e-01
1.726430e-01
2.218840e-01
2.076150e-01
1.945800e-01
1.827790e-01
1.722130e-01
2.156490e-01
2.017070e-01
1.890480e-01
1.776720e-01
1.675800e-01
1.608990e-01
1.520580e-01
1.438080e-01
1.361500e-01
1.290840e-01
1.688720e-01
1.594870e-01
1.507470e-01
1.426530e-01
1.352060e-01
1.726430e-01
1.630200e-01
1.540790e-01
1.458180e-01
1.382380e-01
1.722130e-01
1.626590e-01
1.538030e-01
1.456430e-01
1.381820e-01
1.675800e-01
1.584020e-01
1.499190e-01
1.421300e-01
1.350370e-01
1.290840e-01
1.219430e-01
1.156810e-01
1.102990e-01
1.057970e-01
1.352060e-01
1.279710e-01
1.215880e-01
1.160570e-01
1.113770e-01
1.382380e-01
1.310730e-01
1.247050e-01
1.191350e-01
1.143620e-01
1.381820e-01
1.312480e-01
1.250320e-01
1.195330e-01
1.147510e-01
1.350370e-01
1.284970e-01
1.225690e-01
1.172510e-01
1.125450e-01
9.604590e-02
1.003060e-01
1.045770e-01
1.088580e-01
1.131480e-01
9.458900e-02
9.848590e-02
1.024380e-01
1.064450e-01
1.105080e-01
9.299440e-02
9.663610e-02
1.003370e-01
1.040960e-01
1.079130e-01
9.126190e-02
9.475730e-02
9.827290e-02
1.018090e-01
1.053650e-01
8.939170e-02
9.284930e-02
9.624700e-02
9.958480e-02
1.028630e-01
1.131480e-01
1.174130e-01
1.216130e-01
1.257450e-01
1.298120e-01
1.105080e-01
1.146400e-01
1.187790e-01
1.229230e-01
1.270720e-01
1.079130e-01
1.118780e-01
1.159110e-01
1.200140e-01
1.241850e-01
1.053650e-01
1.091250e-01
1.130090e-01
1.170170e-01
1.211490e-01
1.028630e-01
1.063830e-01
1.100740e-01
1.139350e-01
1.179660e-01
1.298120e-01
1.341860e-01
1.391580e-01
1.447260e-01
1.508910e-01
1.270720e-01
1.314790e-01
1.364180e-01
1.418890e-01
1.478930e-01
1.241850e-01
1.285770e-01
1.334410e-01
1.387760e-01
1.445830e-01
1.211490e-01
1.254800e-01
1.302260e-01
1.353870e-01
1.409630e-01
1.179660e-01
1.221880e-01
1.267730e-01
1.317210e-01
1.370320e-01
1.508910e-01
1.574680e-01
1.648650e-01
1.730810e-01
1.821160e-01
1.478930e-01
1.542550e-01
1.613910e-01
1.693030e-01
1.779890e-01
1.445830e-01
1.506950e-01
1.575330e-01
1.650980e-01
1.733890e-01
1.409630e-01
1.467890e-01
1.532900e-01
1.604660e-01
1.683180e-01
1.370320e-01
1.425370e-01
1.486620e-01
1.554080e-01
1.627740e-01
1.821160e-01
1.914160e-01
2.020680e-01
2.140730e-01
2.274300e-01
1.779890e-01
1.869150e-01
1.971000e-01
2.085430e-01
2.212430e-01
1.733890e-01
1.818690e-01
1.915190e-01
2.023380e-01
2.143260e-01
1.683180e-01
1.762790e-01
1.853260e-01
1.954590e-01
2.066790e-01
1.627740e-01
1.701430e-01
1.785210e-01
1.879070e-01
1.983010e-01
2.274300e-01
2.402630e-01
2.556990e-01
2.737370e-01
2.943780e-01
2.212430e-01
2.334960e-01
2.481570e-01
2.652270e-01
2.847060e-01
2.143260e-01
2.258320e-01
2.395900e-01
2.555980e-01
2.738590e-01
2.066790e-01
2.172740e-01
2.299980e-01
2.448520e-01
2.618350e-01
1.983010e-01
2.078200e-01
2.193820e-01
2.329880e-01
2.486360e-01
2.943780e-01
3.117140e-01
3.343170e-01
3.621880e-01
3.953260e-01
2.847060e-01
3.005040e-01
3.217980e-01
3.485880e-01
3.808750e-01
2.738590e-01
2.879120e-01
3.076880e-01
3.331860e-01
3.644050e-01
2.618350e-01
2.739400e-01
2.919880e-01
3.159800e-01
3.459150e-01
2.486360e-01
2.585850e-01
2.746970e-01
2.969700e-01
3.254060e-01
3.953260e-01
4.230460e-01
4.580620e-01
5.003740e-01
5.499820e-01
3.808750e-01
4.052040e-01
4.379340e-01
4.790670e-01
5.286020e-01
3.644050e-01
3.840130e-01
4.138370e-01
4.538760e-01
5.041300e-01
3.459150e-01
3.594750e-01
3.857700e-01
4.248000e-01
4.765650e-01
3.254060e-01
3.315890e-01
3.537340e-01
3.918410e-01
4.459080e-01
5.499820e-01
6.102550e-01
6.725030e-01
7.367260e-01
8.029240e-01
5.286020e-01
5.886710e-01
6.495050e-01
7.111030e-01
7.734660e-01
5.041300e-01
5.596010e-01
6.159340e-01
6.731300e-01
7.311870e-01
4.765650e-01
5.230460e-01
5.717930e-01
6.228060e-01
6.760870e-01
4.459080e-01
4.790050e-01
5.170790e-01
5.601330e-01
6.081650e-01
8.029240e-01
9.127480e-01
1.019610e+00
1.123510e+00
1.224450e+00
7.734660e-01
9.108750e-01
1.038100e+00
1.155150e+00
1.262020e+00
7.311870e-01
8.893710e-01
1.024210e+00
1.135700e+00
1.223850e+00
6.760870e-01
8.482340e-01
9.779260e-01
1.065160e+00
1.109950e+00
6.081650e-01
7.874650e-01
8.992540e-01
9.435300e-01
9.202950e-01
1.224450e+00
1.342280e+00
1.439290e+00
1.515490e+00
1.570880e+00
1.262020e+00
1.371910e+00
1.464570e+00
1.540020e+00
1.598240e+00
1.223850e+00
1.323250e+00
1.410740e+00
1.486350e+00
1.550060e+00
1.109950e+00
1.196280e+00
1.277790e+00
1.354470e+00
1.426320e+00
9.202950e-01
9.910210e-01
1.065720e+00
1.144400e+00
1.227040e+00
1.570880e+00
1.518350e+00
1.460290e+00
1.396700e+00
1.327590e+00
1.598240e+00
1.549950e+00
1.492150e+00
1.424820e+00
1.347980e+00
1.550060e+00
1.499600e+00
1.443750e+00
1.382490e+00
1.315830e+00
1.426320e+00
1.367290e+00
1.315080e+00
1.269700e+00
1.231140e+00
1.227040e+00
1.153020e+00
1.106160e+00
1.086460e+00
1.093920e+00
1.327590e+00
1.240240e+00
1.152930e+00
1.065650e+00
9.784060e-01
1.347980e+00
1.236660e+00
1.130110e+00
1.028350e+00
9.313570e-01
1.315830e+00
1.197940e+00
1.084250e+00
9.747690e-01
8.694890e-01
1.231140e+00
1.124090e+00
1.015350e+00
9.049180e-01
7.928040e-01
1.093920e+00
1.015110e+00
9.233990e-01
8.187960e-01
7.012990e-01
9.784060e-01
8.949790e-01
8.091260e-01
7.208480e-01
6.301430e-01
9.313570e-01
8.530420e-01
7.710840e-01
6.854810e-01
5.962350e-01
8.694890e-01
7.973710e-01
7.208800e-01
6.400150e-01
5.547760e-01
7.928040e-01
7.279660e-01
6.585140e-01
5.844470e-01
5.057660e-01
7.012990e-01
6.448260e-01
5.839860e-01
5.187780e-01
4.492040e-01
6.301430e-01
5.664490e-01
5.089520e-01
4.576540e-01
4.125540e-01
5.962350e-01
5.370690e-01
4.839100e-01
4.367600e-01
3.956190e-01
5.547760e-01
5.027230e-01
4.557850e-01
4.139610e-01
3.772510e-01
5.057660e-01
4.634140e-01
4.245770e-01
3.892560e-01
3.574500e-01
4.492040e-01
4.191390e-01
3.902860e-01
3.626460e-01
3.362170e-01
4.125540e-01
3.742370e-01
3.401450e-01
3.102770e-01
2.846330e-01
3.956190e-01
3.589570e-01
3.263980e-01
2.979430e-01
2.735920e-01
3.772510e-01
3.425110e-01
3.117260e-01
2.848970e-01
2.620230e-01
3.574500e-01
3.249000e-01
2.961290e-01
2.711380e-01
2.499270e-01
3.362170e-01
3.061240e-01
2.796080e-01
2.566680e-01
2.373040e-01
2.846330e-01
2.654790e-01
2.475970e-01
2.309870e-01
2.156490e-01
2.735920e-01
2.564100e-01
2.400820e-01
2.246070e-01
2.099850e-01
2.620230e-01
2.469030e-01
2.321900e-01
2.178860e-01
2.039900e-01
2.499270e-01
2.369580e-01
2.239240e-01
2.108250e-01
1.976620e-01
2.373040e-01
2.265750e-01
2.152810e-01
2.034240e-01
1.910020e-01
2.156490e-01
2.017070e-01
1.890480e-01
1.776720e-01
1.675800e-01
2.099850e-01
1.964250e-01
1.841940e-01
1.732930e-01
1.637210e-01
2.039900e-01
1.908580e-01
1.790940e-01
1.686980e-01
1.596700e-01
1.976620e-01
1.850050e-01
1.737480e-01
1.638880e-01
1.554280e-01
1.910020e-01
1.788680e-01
1.681550e-01
1.588640e-01
1.509930e-01
1.675800e-01
1.584020e-01
1.499190e-01
1.421300e-01
1.350370e-01
1.637210e-01
1.550220e-01
1.469520e-01
1.395110e-01
1.326990e-01
1.596700e-01
1.514640e-01
1.438170e-01
1.367300e-01
1.302020e-01
1.554280e-01
1.477280e-01
1.405140e-01
1.337860e-01
1.275440e-01
1.509930e-01
1.438140e-01
1.370430e-01
1.306810e-01
1.247270e-01
1.350370e-01
1.284970e-01
1.225690e-01
1.172510e-01
1.125450e-01
1.326990e-01
1.264270e-01
1.207400e-01
1.156370e-01
1.111190e-01
1.302020e-01
1.241900e-01
1.187440e-01
1.138630e-01
1.095480e-01
1.275440e-01
1.217850e-01
1.165800e-01
1.119290e-01
1.078320e-01
1.247270e-01
1.192120e-01
1.142480e-01
1.098340e-01
1.059710e-01
8.939170e-02
9.284930e-02
9.624700e-02
9.958480e-02
1.028630e-01
8.740010e-02
9.065450e-02
9.387060e-02
9.704840e-02
1.001880e-01
8.530680e-02
8.835530e-02
9.138950e-02
9.440930e-02
9.741470e-02
8.311190e-02
8.595170e-02
8.880360e-02
9.166750e-02
9.454350e-02
8.081530e-02
8.344370e-02
8.611290e-02
8.882310e-02
9.157420e-02
1.028630e-01
1.063830e-01
1.100740e-01
1.139350e-01
1.179660e-01
1.001880e-01
1.035150e-01
1.070310e-01