<?xml version="1.0"?>
<VTKFile type="UnstructuredGrid" version="0.1" byte_order="LittleEndian" compressor="vtkZLibDataCompressor">
<UnstructuredGrid>
<Piece NumberOfPoints="10000" NumberOfCells="6400">
<Points>
<DataArray type="Float32" NumberOfComponents="3" format="ascii">
-3.360000e+00 0.000000e+00 0.000000e+00
-3.276000e+00 0.000000e+00 0.000000e+00
-3.192000e+00 0.000000e+00 0.000000e+00
-3.108000e+00 0.000000e+00 0.000000e+00
-3.024000e+00 0.000000e+00 0.000000e+00
-3.360000e+00 6.412500e-02 0.000000e+00
-3.276000e+00 6.412500e-02 0.000000e+00
-3.192000e+00 6.412500e-02 0.000000e+00
-3.108000e+00 6.412500e-02 0.000000e+00
-3.024000e+00 6.412500e-02 0.000000e+00
-3.360000e+00 1.282500e-01 0.000000e+00
-3.276000e+00 1.282500e-01 0.000000e+00
-3.192000e+00 1.282500e-01 0.000000e+00
-3.108000e+00 1.282500e-01 0.000000e+00
-3.024000e+00 1.282500e-01 0.000000e+00
-3.360000e+00 1.923750e-01 0.000000e+00
-3.276000e+00 1.923750e-01 0.000000e+00
-3.192000e+00 1.923750e-01 0.000000e+00
-3.108000e+00 1.923750e-01 0.000000e+00
-3.024000e+00 1.923750e-01 0.000000e+00
-3.360000e+00 2.565000e-01 0.000000e+00
-3.276000e+00 2.565000e-01 0.000000e+00
-3.192000e+00 2.565000e-01 0.000000e+00
-3.108000e+00 2.565000e-01 0.000000e+00
-3.024000e+00 2.565000e-01 0.000000e+00
-3.024000e+00 0.000000e+00 0.000000e+00
-2.940000e+00 0.000000e+00 0.000000e+00
-2.856000e+00 0.000000e+00 0.000000e+00
-2.772000e+00 0.000000e+00 0.000000e+00
-2.688000e+00 0.000000e+00 0.000000e+00
-3.024000e+00 6.412500e-02 0.000000e+00
-2.940000e+00 6.412500e-02 0.000000e+00
-2.856000e+00 6.412500e-02 0.000000e+00
-2.772000e+00 6.412500e-02 0.000000e+00
-2.688000e+00 6.412500e-02 0.000000e+00
-3.024000e+00 1.282500e-01 0.000000e+00
-2.940000e+00 1.282500e-01 0.000000e+00
-2.856000e+00 1.282500e-01 0.000000e+00
-2.772000e+00 1.282500e-01 0.000000e+00
-2.688000e+00 1.282500e-01 0.000000e+00
-3.024000e+00 1.923750e-01 0.000000e+00
-2.940000e+00 1.923750e-01 0.000000e+00
-2.856000e+00 1.923750e-01 0.000000e+00
-2.772000e+00 1.923750e-01 0.000000e+00
-2.688000e+00 1.923750e-01 0.000000e+00
-3.024000e+00 2.565000e-01 0.000000e+00
-2.940000e+00 2.565000e-01 0.000000e+00
-2.856000e+00 2.565000e-01 0.000000e+00
-2.772000e+00 2.565000e-01 0.000000e+00
-2.688000e+00 2.565000e-01 0.000000e+00
-2.688000e+00 0.000000e+00 0.000000e+00
-2.604000e+00 0.000000e+00 0.000000e+00
-2.520000e+00 0.000000e+00 0.000000e+00
-2.436000e+00 0.000000e+00 0.000000e+00
-2.352000e+00 0.000000e+00 0.000000e+00
-2.688000e+00 6.412500e-02 0.000000e+00
-2.604000e+00 6.412500e-02 0.000000e+00
-2.520000e+00 6.412500e-02 0.000000e+00
-2.436000e+00 6.412500e-02 0.000000e+00
-2.352000e+00 6.412500e-02 0.000000e+00
-2.688000e+00 1.282500e-01 0.000000e+00
-2.604000e+00 1.282500e-01 0.000000e+00
-2.520000e+00 1.282500e-01 0.000000e+00
-2.436000e+00 1.282500e-01 0.000000e+00
-2.352000e+00 1.282500e-01 0.000000e+00
-2.688000e+00 1.923750e-01 0.000000e+00
-2.604000e+00 1.923750e-01 0.000000e+00
-2.520000e+00 1.923750e-01 0.000000e+00
-2.436000e+00 1.923750e-01 0.000000e+00
-2.352000e+00 1.923750e-01 0.000000e+00
-2.688000e+00 2.565000e-01 0.000000e+00
-2.604000e+00 2.565000e-01 0.000000e+00
-2.520000e+00 2.565000e-01 0.000000e+00
-2.436000e+00 2.565000e-01 0.000000e+00
-2.352000e+00 2.565000e-01 0.000000e+00
-2.352000e+00 0.000000e+00 0.000000e+00
-2.268000e+00 0.000000e+00 0.000000e+00
-2.184000e+00 0.000000e+00 0.000000e+00
-2.100000e+00 0.000000e+00 0.000000e+00
-2.016000e+00 0.000000e+00 0.000000e+00
-2.352000e+00 6.412500e-02 0.000000e+00
-2.268000e+00 6.412500e-02 0.000000e+00
-2.184000e+00 6.412500e-02 0.000000e+00
-2.100000e+00 6.412500e-02 0.000000e+00
-2.016000e+00 6.412500e-02 0.000000e+00
-2.352000e+00 1.282500e-01 0.000000e+00
-2.268000e+00 1.282500e-01 0.000000e+00
-2.184000e+00 1.282500e-01 0.000000e+00
-2.100000e+00 1.282500e-01 0.000000e+00
-2.016000e+00 1.282500e-01 0.000000e+00
-2.352000e+00 1.923750e-01 0.000000e+00
-2.268000e+00 1.923750e-01 0.000000e+00
-2.184000e+00 1.923750e-01 0.000000e+00
-2.100000e+00 1.923750e-01 0.000000e+00
-2.016000e+00 1.923750e-01 0.000000e+00
-2.352000e+00 2.565000e-01 0.000000e+00
-2.268000e+00 2.565000e-01 0.000000e+00
-2.184000e+00 2.565000e-01 0.000000e+00
-2.100000e+00 2.565000e-01 0.000000e+00
-2.016000e+00 2.565000e-01 0.000000e+00
-2.016000e+00 0.000000e+00 0.000000e+00
-1.932000e+00 0.000000e+00 0.000000e+00
-1.848000e+00 0.000000e+00 0.000000e+00
-1.764000e+00 0.000000e+00 0.000000e+00
-1.680000e+00 0.000000e+00 0.000000e+00
-2.016000e+00 6.412500e-02 0.000000e+00
-1.932000e+00 6.412500e-02 0.000000e+00
-1.848000e+00 6.412500e-02 0.000000e+00
-1.764000e+00 6.412500e-02 0.000000e+00
-1.680000e+00 6.412500e-02 0.000000e+00
-2.016000e+00 1.282500e-01 0.000000e+00
-1.932000e+00 1.282500e-01 0.000000e+00
-1.848000e+00 1.282500e-01 0.000000e+00
-1.764000e+00 1.282500e-01 0.000000e+00
-1.680000e+00 1.282500e-01 0.000000e+00
-2.016000e+00 1.923750e-01 0.000000e+00
-1.932000e+00 1.923750e-01 0.000000e+00
-1.848000e+00 1.923750e-01 0.000000e+00
-1.764000e+00 1.923750e-01 0.000000e+00
-1.680000e+00 1.923750e-01 0.000000e+00
-2.016000e+00 2.565000e-01 0.000000e+00
-1.932000e+00 2.565000e-01 0.000000e+00
-1.848000e+00 2.565000e-01 0.000000e+00
-1.764000e+00 2.565000e-01 0.000000e+00
-1.680000e+00 2.565000e-01 0.000000e+00
-1.680000e+00 0.000000e+00 0.000000e+00
-1.596000e+00 0.000000e+00 0.000000e+00
-1.512000e+00 0.000000e+00 0.000000e+00
-1.428000e+00 0.000000e+00 0.000000e+00
-1.344000e+00 0.000000e+00 0.000000e+00
-1.680000e+00 6.412500e-02 0.000000e+00
-1.596000e+00 6.412500e-02 0.000000e+00
-1.512000e+00 6.412500e-02 0.000000e+00
-1.428000e+00 6.412500e-02 0.000000e+00
-1.344000e+00 6.412500e-02 0.000000e+00
-1.680000e+00 1.282500e-01 0.000000e+00
-1.596000e+00 1.282500e-01 0.000000e+00
-1.512000e+00 1.282500e-01 0.000000e+00
-1.428000e+00 1.282500e-01 0.000000e+00
-1.344000e+00 1.282500e-01 0.000000e+00
-1.680000e+00 1.923750e-01 0.000000e+00
-1.596000e+00 1.923750e-01 0.000000e+00
-1.512000e+00 1.923750e-01 0.000000e+00
-1.428000e+00 1.923750e-01 0.000000e+00
-1.344000e+00 1.923750e-01 0.000000e+00
-1.680000e+00 2.565000e-01 0.000000e+00
-1.596000e+00 2.565000e-01 0.000000e+00
-1.512000e+00 2.565000e-01 0.000000e+00
-1.428000e+00 2.565000e-01 0.000000e+00
-1.344000e+00 2.565000e-01 0.000000e+00
-1.344000e+00 0.000000e+00 0.000000e+00
-1.260000e+00 0.000000e+00 0.000000e+00
-1.176000e+00 0.000000e+00 0.000000e+00
-1.092000e+00 0.000000e+00 0.000000e+00
-1.008000e+00 0.000000e+00 0.000000e+00
-1.344000e+00 6.412500e-02 0.000000e+00
-1.260000e+00 6.412500e-02 0.000000e+00
-1.176000e+00 6.412500e-02 0.000000e+00
-1.092000e+00 6.412500e-02 0.000000e+00
-1.008000e+00 6.412500e-02 0.000000e+00
-1.344000e+00 1.282500e-01 0.000000e+00
-1.260000e+00 1.282500e-01 0.000000e+00
-1.176000e+00 1.282500e-01 0.000000e+00
-1.092000e+00 1.282500e-01 0.000000e+00
-1.008000e+00 1.282500e-01 0.000000e+00
-1.344000e+00 1.923750e-01 0.000000e+00
-1.260000e+00 1.923750e-01 0.000000e+00
-1.176000e+00 1.923750e-01 0.000000e+00
-1.092000e+00 1.923750e-01 0.000000e+00
-1.008000e+00 1.923750e-01 0.000000e+00
-1.344000e+00 2.565000e-01 0.000000e+00
-1.260000e+00 2.565000e-01 0.000000e+00
-1.176000e+00 2.565000e-01 0.000000e+00
-1.092000e+00 2.565000e-01 0.000000e+00
-1.008000e+00 2.565000e-01 0.000000e+00
-1.008000e+00 0.000000e+00 0.000000e+00
-9.240000e-01 0.000000e+00 0.000000e+00
-8.400000e-01 0.000000e+00 0.000000e+00
-7.560000e-01 0.000000e+00 0.000000e+00
-6.720000e-01 0.000000e+00 0.000000e+00
-1.008000e+00 6.412500e-02 0.000000e+00
-9.240000e-01 6.412500e-02 0.000000e+00
-8.400000e-01 6.412500e-02 0.000000e+00
-7.560000e-01 6.412500e-02 0.000000e+00
-6.720000e-01 6.412500e-02 0.000000e+00
-1.008000e+00 1.282500e-01 0.000000e+00
-9.240000e-01 1.282500e-01 0.000000e+00
-8.400000e-01 1.282500e-01 0.000000e+00
-7.560000e-01 1.282500e-01 0.000000e+00
-6.720000e-01 1.282500e-01 0.000000e+00
-1.008000e+00 1.923750e-01 0.000000e+00
-9.240000e-01 1.923750e-01 0.000000e+00
-8.400000e-01 1.923750e-01 0.000000e+00
-7.560000e-01 1.923750e-01 0.000000e+00
-6.720000e-01 1.923750e-01 0.000000e+00
-1.008000e+00 2.565000e-01 0.000000e+00
-9.240000e-01 2.565000e-01 0.000000e+00
-8.400000e-01 2.565000e-01 0.000000e+00
-7.560000e-01 2.565000e-01 0.000000e+00
-6.720000e-01 2.565000e-01 0.000000e+00
-6.720000e-01 0.000000e+00 0.000000e+00
-5.880000e-01 0.000000e+00 0.000000e+00
-5.040000e-01 0.000000e+00 0.000000e+00
-4.200000e-01 0.000000e+00 0.000000e+00
-3.360000e-01 0.000000e+00 0.000000e+00
-6.720000e-01 6.412500e-02 0.000000e+00
-5.880000e-01 6.412500e-02 0.000000e+00
-5.040000e-01 6.412500e-02 0.000000e+00
-4.200000e-01 6.412500e-02 0.000000e+00
-3.360000e-01 6.412500e-02 0.000000e+00
-6.720000e-01 1.282500e-01 0.000000e+00
-5.880000e-01 1.282500e-01 0.000000e+00
-5.040000e-01 1.282500e-01 0.000000e+00
-4.200000e-01 1.282500e-01 0.000000e+00
-3.360000e-01 1.282500e-01 0.000000e+00
-6.720000e-01 1.923750e-01 0.000000e+00
-5.880000e-01 1.923750e-01 0.000000e+00
-5.040000e-01 1.923750e-01 0.000000e+00
-4.200000e-01 1.923750e-01 0.000000e+00
-3.360000e-01 1.923750e-01 0.000000e+00
-6.720000e-01 2.565000e-01 0.000000e+00
-5.880000e-01 2.565000e-01 0.000000e+00
-5.040000e-01 2.565000e-01 0.000000e+00
-4.200000e-01 2.565000e-01 0.000000e+00
-3.360000e-01 2.565000e-01 0.000000e+00
-3.360000e-01 0.000000e+00 0.000000e+00
-2.520000e-01 0.000000e+00 0.000000e+00
-1.680000e-01 0.000000e+00 0.000000e+00
-8.400000e-02 0.000000e+00 0.000000e+00
-4.440890e-16 0.000000e+00 0.000000e+00
-3.360000e-01 6.412500e-02 0.000000e+00
-2.520000e-01 6.412500e-02 0.000000e+00
-1.680000e-01 6.412500e-02 0.000000e+00
-8.400000e-02 6.412500e-02 0.000000e+00
-4.440890e-16 6.412500e-02 0.000000e+00
-3.360000e-01 1.282500e-01 0.000000e+00
-2.520000e-01 1.282500e-01 0.000000e+00
-1.680000e-01 1.282500e-01 0.000000e+00
-8.400000e-02 1.282500e-01 0.000000e+00
-4.440890e-16 1.282500e-01 0.000000e+00
-3.360000e-01 1.923750e-01 0.000000e+00
-2.520000e-01 1.923750e-01 0.000000e+00
-1.680000e-01 1.923750e-01 0.000000e+00
[...]
<PointData>
<DataArray type="Float32" Name="V1" format="ascii">
0.000000e+00
0.000000e+00
0.000000e+00
0.000000e+00
0.000000e+00
6.347820e-02
5.973880e-02
5.553040e-02
5.085320e-02
4.570710e-02
1.013490e-01
9.790150e-02
9.320840e-02
8.726950e-02
8.008460e-02
1.136110e-01
1.144880e-01
1.130340e-01
1.092490e-01
1.031330e-01
1.002660e-01
1.094990e-01
1.150070e-01
1.167910e-01
1.148510e-01
0.000000e+00
0.000000e+00
0.000000e+00
0.000000e+00
0.000000e+00
4.570710e-02
3.995550e-02
3.546780e-02
3.224420e-02
3.028450e-02
8.008460e-02
7.171730e-02
6.498360e-02
5.988360e-02
5.641740e-02
1.031330e-01
9.528540e-02
8.854730e-02
8.291840e-02
7.839870e-02
1.148510e-01
1.106600e-01
1.061590e-01
1.013490e-01
9.622840e-02
0.000000e+00
0.000000e+00
0.000000e+00
0.000000e+00
0.000000e+00
3.028450e-02
2.847730e-02
2.694170e-02
2.567760e-02
2.468500e-02
5.641740e-02
5.329580e-02
5.067670e-02
4.856010e-02
4.694600e-02
7.839870e-02
7.445540e-02
7.120500e-02
6.864750e-02
6.678300e-02
9.622840e-02
9.195620e-02
8.852670e-02
8.594000e-02
8.419600e-02
0.000000e+00
0.000000e+00
0.000000e+00
0.000000e+00
0.000000e+00
2.468500e-02
2.386370e-02
2.336060e-02
2.317560e-02
2.330870e-02
4.694600e-02
4.565110e-02
4.488290e-02
4.464140e-02
4.492650e-02
6.678300e-02
6.536200e-02
6.456670e-02
6.439720e-02
6.485340e-02
8.419600e-02
8.299650e-02
8.241220e-02
8.244320e-02
8.308940e-02
0.000000e+00
0.000000e+00
0.000000e+00
0.000000e+00
0.000000e+00
2.330870e-02
2.356470e-02
2.398470e-02
2.456890e-02
2.531730e-02
4.492650e-02
4.545450e-02
4.628890e-02
4.742980e-02
4.887730e-02
6.485340e-02
6.566930e-02
6.691240e-02
6.858270e-02
7.068020e-02
8.308940e-02
8.420930e-02
8.585530e-02
8.802750e-02
9.072590e-02
0.000000e+00
0.000000e+00
0.000000e+00
0.000000e+00
0.000000e+00
2.531730e-02
2.621140e-02
2.733500e-02
2.868780e-02
3.027010e-02
4.887730e-02
5.059080e-02
5.270620e-02
5.522340e-02
5.814260e-02
7.068020e-02
7.313810e-02
7.611360e-02
7.960670e-02
8.361750e-02
9.072590e-02
9.385330e-02
9.755720e-02
1.018380e-01
1.066950e-01
0.000000e+00
0.000000e+00
0.000000e+00
0.000000e+00
0.000000e+00
3.027010e-02
3.204230e-02
3.414080e-02
3.656540e-02
3.931630e-02
5.814260e-02
6.140270e-02
6.522760e-02
6.961730e-02
7.457180e-02
8.361750e-02
8.808110e-02
9.326040e-02
9.915550e-02
1.057660e-01
1.066950e-01
1.120780e-01
1.182390e-01
1.251800e-01
1.329000e-01
0.000000e+00
0.000000e+00
0.000000e+00
0.000000e+00
0.000000e+00
3.931630e-02
4.230380e-02
4.581180e-02
4.984020e-02
5.438910e-02
7.457180e-02
7.994240e-02
8.619150e-02
9.331890e-02
1.013250e-01
1.057660e-01
1.129160e-01
1.211390e-01
1.304360e-01
1.408070e-01
1.329000e-01
1.412240e-01
1.506550e-01
1.611920e-01
1.728350e-01
0.000000e+00
0.000000e+00
0.000000e+00
0.000000e+00
0.000000e+00
5.438910e-02
5.918390e-02
6.478260e-02
7.118540e-02
7.839220e-02
1.013250e-01
1.097570e-01
1.195220e-01
1.306200e-01
1.430510e-01
1.408070e-01
1.517190e-01
1.642170e-01
1.783030e-01
1.939750e-01
1.728350e-01
1.850700e-01
1.988690e-01
2.142350e-01
2.311660e-01
0.000000e+00
0.000000e+00
0.000000e+00
0.000000e+00
0.000000e+00
7.839220e-02
8.582140e-02
9.426990e-02
1.037380e-01
1.142250e-01
1.430510e-01
1.558880e-01
1.703890e-01
1.865540e-01
2.043850e-01
1.939750e-01
2.101980e-01
2.283570e-01
2.484500e-01
2.704780e-01
2.311660e-01
2.487540e-01
2.681740e-01
2.894240e-01
3.125070e-01
0.000000e+00
0.000000e+00
0.000000e+00
0.000000e+00
0.000000e+00
1.142250e-01
1.253640e-01
1.369800e-01
1.490720e-01
1.616410e-01
2.043850e-01
2.234110e-01
2.432420e-01
2.638790e-01
2.853210e-01
2.704780e-01
2.941390e-01
3.187860e-01
3.444190e-01
3.710390e-01
3.125070e-01
3.375490e-01
3.636120e-01
3.906940e-01
4.187970e-01
0.000000e+00
0.000000e+00
0.000000e+00
0.000000e+00
0.000000e+00
1.616410e-01
1.762380e-01
1.892400e-01
2.006450e-01
2.104550e-01
2.853210e-01
3.103030e-01
3.329270e-01
3.531920e-01
3.710990e-01
3.710390e-01
4.021950e-01
4.310620e-01
4.576410e-01
4.819330e-01
4.187970e-01
4.519130e-01
4.836440e-01
5.139920e-01
5.429560e-01
0.000000e+00
0.000000e+00
0.000000e+00
0.000000e+00
0.000000e+00
2.104550e-01
2.214090e-01
2.283060e-01
2.311470e-01
2.299310e-01
3.710990e-01
3.912230e-01
4.051380e-01
4.128450e-01
4.143440e-01
4.819330e-01
5.094430e-01
5.304970e-01
5.450970e-01
5.532410e-01
5.429560e-01
5.760680e-01
6.043830e-01
6.279010e-01
6.466210e-01
0.000000e+00
0.000000e+00
0.000000e+00
0.000000e+00
0.000000e+00
2.299310e-01
2.219560e-01
2.104730e-01
1.954820e-01
1.769830e-01
4.143440e-01
4.051420e-01
3.896950e-01
3.680040e-01
3.400680e-01
5.532410e-01
5.495590e-01
5.376670e-01
5.175660e-01
4.892560e-01
6.466210e-01
6.552070e-01
6.543890e-01
6.441690e-01
6.245450e-01
0.000000e+00
0.000000e+00
0.000000e+00
0.000000e+00
0.000000e+00
1.769830e-01
1.504070e-01
1.259570e-01
1.036320e-01
8.343430e-02
3.400680e-01
2.966640e-01
2.547940e-01
2.144580e-01
1.756570e-01
4.892560e-01
4.387710e-01
3.865120e-01
3.324770e-01
2.766680e-01
6.245450e-01
5.767290e-01
5.211110e-01
4.576900e-01
3.864670e-01
0.000000e+00
0.000000e+00
0.000000e+00
0.000000e+00
0.000000e+00
8.343430e-02
6.728690e-02
5.288430e-02
4.022640e-02
2.931330e-02
1.756570e-01
1.425370e-01
1.127160e-01
8.619450e-02
6.297150e-02
2.766680e-01
2.257510e-01
1.794960e-01
1.379040e-01
1.009750e-01
3.864670e-01
3.169280e-01
2.532240e-01
1.953560e-01
1.433230e-01
0.000000e+00
0.000000e+00
0.000000e+00
0.000000e+00
0.000000e+00
2.931330e-02
2.182970e-02
1.465100e-02
7.777230e-03
1.208260e-03
6.297150e-02
4.707890e-02
3.252680e-02
1.931520e-02
7.444010e-03
1.009750e-01
7.574760e-02
5.362730e-02
3.461390e-02
1.870730e-02
1.433230e-01
1.078360e-01
7.795250e-02
5.367330e-02
3.499800e-02
0.000000e+00
0.000000e+00
0.000000e+00
0.000000e+00
0.000000e+00
1.208260e-03
-2.948140e-03
-5.586490e-03
-6.706770e-03
-6.308980e-03
7.444010e-03
-6.299880e-05
-4.749750e-03
-6.616250e-03
-5.662490e-03
1.870730e-02
8.655440e-03
2.510200e-03
2.715430e-04
1.939470e-03
3.499800e-02
2.320720e-02
1.619340e-02
1.395660e-02
1.649690e-02
0.000000e+00
0.000000e+00
0.000000e+00
0.000000e+00
0.000000e+00
-6.308980e-03
-6.472750e-03
-6.267430e-03
-5.693030e-03
-4.749550e-03
-5.662490e-03
-5.696930e-03
-5.213630e-03
-4.212600e-03
-2.693840e-03
1.939470e-03
2.327460e-03
3.161400e-03
4.441290e-03
6.167140e-03
1.649690e-02
1.760040e-02
1.885770e-02
2.026870e-02
2.183340e-02
0.000000e+00
0.000000e+00
0.000000e+00
0.000000e+00
0.000000e+00
-4.749550e-03
-4.089090e-03
-4.623090e-03
-6.351560e-03
-9.274490e-03
-2.693840e-03
-1.862410e-03
-2.763000e-03
-5.395620e-03
-9.760260e-03
6.167140e-03
6.680040e-03
5.580260e-03
2.867810e-03
-1.457320e-03
2.183340e-02
2.153830e-02
2.040670e-02
1.843870e-02
1.563430e-02
1.002660e-01
1.094990e-01
1.150070e-01
1.167910e-01
1.148510e-01
9.945850e-02
1.079040e-01
1.139880e-01
1.177130e-01
1.190770e-01
9.848610e-02
1.059660e-01
1.121490e-01
1.170350e-01
1.206240e-01
9.734850e-02
1.036850e-01
1.094880e-01
1.147580e-01
1.194940e-01
9.604590e-02
1.010620e-01
1.060070e-01
1.108810e-01
1.156840e-01
1.148510e-01
1.106600e-01
1.061590e-01
1.013490e-01
9.622840e-02
1.190770e-01
1.178230e-01
1.156420e-01
1.125360e-01
1.085040e-01
1.206240e-01
1.216610e-01
1.213940e-01
1.198220e-01
1.169450e-01
1.194940e-01
1.221760e-01
1.234130e-01
1.232050e-01
1.215520e-01
1.156840e-01
1.193660e-01
1.217000e-01
1.226860e-01
1.223250e-01
9.622840e-02
9.195620e-02
8.852670e-02
8.594000e-02
8.419600e-02
1.085040e-01
1.047270e-01
1.016740e-01
9.934370e-02
9.773710e-02
1.169450e-01
1.138600e-01
1.113420e-01
1.093910e-01
1.080060e-01
1.215520e-01
1.193550e-01
1.175310e-01
1.160800e-01
1.150040e-01
1.223250e-01
1.212120e-01
1.202410e-01
1.194130e-01
1.187290e-01
8.419600e-02
8.299650e-02
8.241220e-02
8.244320e-02
8.308940e-02
9.773710e-02
9.674070e-02
9.636060e-02
9.659660e-02
9.744890e-02
1.080060e-01
1.072440e-01
1.070740e-01
1.074980e-01
1.085150e-01
1.150040e-01
1.145050e-01
1.145530e-01
1.151470e-01
1.162870e-01
1.187290e-01
1.185250e-01
1.187970e-01
1.195440e-01
1.207660e-01
8.308940e-02
8.420930e-02
8.585530e-02
8.802750e-02
9.072590e-02
9.744890e-02
9.878650e-02
1.006870e-01
1.031520e-01
1.061800e-01
1.085150e-01
1.100130e-01
1.120860e-01
1.147340e-01
1.179570e-01
1.162870e-01
1.178880e-01
1.200500e-01
1.227720e-01
1.260550e-01
1.207660e-01
1.224130e-01
1.245810e-01
1.272680e-01
1.304760e-01
9.072590e-02
9.385330e-02
9.755720e-02
1.018380e-01
1.066950e-01
1.061800e-01
1.096670e-01
1.137500e-01
1.184280e-01
1.237010e-01
1.179570e-01
1.216480e-01
1.259350e-01
1.308170e-01
1.362940e-01
1.260550e-01
1.297960e-01
1.341120e-01
1.390050e-01
1.444740e-01
1.304760e-01
1.341100e-01
1.382820e-01
1.429930e-01
1.482410e-01
1.066950e-01
1.120780e-01
1.182390e-01
1.251800e-01
1.329000e-01
1.237010e-01
1.294910e-01
1.360610e-01
1.434130e-01
1.515470e-01
1.362940e-01
1.422640e-01
1.489990e-01
1.564980e-01
1.647620e-01
1.444740e-01
1.503990e-01
1.570520e-01
1.644350e-01
1.725460e-01
1.482410e-01
1.538940e-01
1.602210e-01
1.672230e-01
1.748990e-01
1.329000e-01
1.412240e-01
1.506550e-01
1.611920e-01
1.728350e-01
1.515470e-01
1.602330e-01
1.700070e-01
1.808690e-01
1.928190e-01
1.647620e-01
1.735210e-01
1.833340e-01
1.942030e-01
2.061260e-01
1.725460e-01
1.810870e-01
1.906360e-01
2.011930e-01
2.127570e-01
1.748990e-01
1.829330e-01
1.919130e-01
2.018400e-01
2.127120e-01
1.728350e-01
1.850700e-01
1.988690e-01
2.142350e-01
2.311660e-01
1.928190e-01
2.052340e-01
2.192000e-01
2.347160e-01
2.517830e-01
2.061260e-01
2.183970e-01
2.321990e-01
2.475340e-01
2.644010e-01
2.127570e-01
2.245570e-01
2.378670e-01
2.526890e-01
2.690220e-01
2.127120e-01
2.237140e-01
2.362040e-01
2.501810e-01
2.656450e-01
2.311660e-01
2.487540e-01
2.681740e-01
2.894240e-01
3.125070e-01
2.517830e-01
2.693100e-01
2.887360e-01
3.100620e-01
3.332870e-01
2.644010e-01
2.815240e-01
3.006340e-01
3.217300e-01
3.448130e-01
2.690220e-01
2.853970e-01
3.038660e-01
3.244290e-01
3.470850e-01
2.656450e-01
2.809300e-01
2.984340e-01
3.181580e-01
3.401010e-01
3.125070e-01
3.375490e-01
3.636120e-01
3.906940e-01
4.187970e-01
3.332870e-01
3.583290e-01
3.846430e-01
4.122290e-01
4.410860e-01
3.448130e-01
3.695140e-01
3.957600e-01
4.235520e-01
4.528900e-01
3.470850e-01
3.711040e-01
3.969640e-01
4.246650e-01
4.542080e-01
3.401010e-01
3.630990e-01
3.882540e-01
4.155680e-01
4.450400e-01
4.187970e-01
4.519130e-01
4.836440e-01
5.139920e-01
5.429560e-01
4.410860e-01
4.754180e-01
5.087620e-01
5.411160e-01
5.724810e-01
4.528900e-01
4.881650e-01
5.228110e-01
5.568270e-01
5.902140e-01
4.542080e-01
4.901530e-01
5.257930e-01
5.611270e-01
5.961550e-01
4.450400e-01
4.813820e-01
5.177070e-01
5.540150e-01
5.903060e-01
5.429560e-01
5.760680e-01
6.043830e-01
6.279010e-01
6.466210e-01
5.724810e-01
6.099830e-01
6.431030e-01
6.718400e-01
6.961950e-01
5.902140e-01
6.317560e-01
6.691850e-01
7.025030e-01
7.317080e-01
5.961550e-01
6.413860e-01
6.826310e-01
7.198880e-01
7.531590e-01
5.903060e-01
6.388750e-01
6.834380e-01
7.239960e-01
7.605480e-01
6.466210e-01
6.552070e-01
6.543890e-01
6.441690e-01
6.245450e-01
6.961950e-01
7.136930e-01
7.225530e-01
7.227750e-01
7.143580e-01
7.317080e-01
7.564610e-01
7.732560e-01
7.820950e-01
7.829760e-01
7.531590e-01
7.835100e-01
8.065000e-01
8.221290e-01
8.303960e-01
7.605480e-01
7.948400e-01
8.222830e-01
8.428770e-01
8.566210e-01
6.245450e-01
5.767290e-01
5.211110e-01
4.576900e-01
3.864670e-01
7.143580e-01
6.786580e-01
6.314240e-01
5.726580e-01
5.023600e-01
7.829760e-01
7.574330e-01
7.187410e-01
6.668990e-01
6.019080e-01
8.303960e-01
8.130550e-01
7.830610e-01
7.404130e-01
6.851110e-01
8.566210e-01
8.455240e-01
8.243830e-01
7.931980e-01
7.519690e-01
3.864670e-01
3.169280e-01
2.532240e-01
1.953560e-01
1.433230e-01
5.023600e-01
4.188540e-01
3.398700e-01
2.654080e-01
1.954670e-01
6.019080e-01
5.122510e-01
4.240560e-01
3.373250e-01
2.520550e-01
6.851110e-01
5.971180e-01
5.057830e-01
4.111070e-01
3.130890e-01
7.519690e-01
6.734550e-01
5.850500e-01
4.867540e-01
3.785660e-01
1.433230e-01
1.078360e-01
7.795250e-02
5.367330e-02
3.499800e-02
1.954670e-01
1.499230e-01
1.117530e-01
8.095580e-02
5.753170e-02
2.520550e-01
1.964220e-01
1.496710e-01
1.118020e-01
8.281660e-02
3.130890e-01
2.473310e-01
1.917050e-01
1.462130e-01
1.108530e-01
3.785660e-01
3.026500e-01
2.378570e-01
1.841870e-01
1.416400e-01
3.499800e-02
2.320720e-02
1.619340e-02
1.395660e-02
1.649690e-02
5.753170e-02
4.232910e-02
3.318880e-02
3.011060e-02
3.309450e-02
8.281660e-02
6.331620e-02
5.125120e-02
4.662150e-02
4.942710e-02
1.108530e-01
8.616840e-02
7.038050e-02
6.348930e-02
6.549470e-02
1.416400e-01
1.108860e-01
9.057690e-02
8.071410e-02
8.129720e-02
1.649690e-02
1.760040e-02
1.885770e-02
2.026870e-02
2.183340e-02
3.309450e-02
3.449940e-02
3.585070e-02
3.714820e-02
3.839210e-02
4.942710e-02
5.084800e-02
5.209710e-02
5.317430e-02
5.407970e-02
6.549470e-02
6.664610e-02
6.759690e-02
6.834700e-02
6.889640e-02
8.129720e-02
8.189380e-02
8.235020e-02
8.266620e-02
8.284200e-02
2.183340e-02
2.153830e-02
2.040670e-02
1.843870e-02
1.563430e-02
3.839210e-02
3.790490e-02
3.659110e-02
3.445050e-02
3.148330e-02
5.407970e-02
5.329670e-02
5.173120e-02
4.938330e-02
4.625290e-02
6.889640e-02
6.771370e-02
6.582730e-02
6.323720e-02
5.994330e-02
8.284200e-02
8.115580e-02
7.887910e-02
7.601200e-02
7.255450e-02
9.604590e-02
1.010620e-01
1.060070e-01
1.108810e-01
1.156840e-01
9.458900e-02
9.909210e-02
1.035840e-01
1.080630e-01
1.125310e-01
9.299440e-02
9.711840e-02
1.012180e-01
1.052930e-01
1.093430e-01
9.126190e-02
9.514090e-02
9.891000e-02
1.025700e-01
1.061190e-01
8.939170e-02
9.315940e-02
9.665990e-02
9.989330e-02
1.028600e-01
1.156840e-01
1.193660e-01
1.217000e-01
1.226860e-01
1.223250e-01
1.125310e-01
1.162660e-01
1.189160e-01
1.204820e-01
1.209640e-01
1.093430e-01
1.129450e-01
1.157080e-01
1.176320e-01
1.187190e-01
1.061190e-01
1.094010e-01
1.120730e-01
1.141360e-01
1.155900e-01
1.028600e-01
1.056360e-01
1.080140e-01
1.099940e-01
1.115760e-01
1.223250e-01
1.212120e-01
1.202410e-01
1.194130e-01
1.187290e-01
1.209640e-01
1.206650e-01
1.203870e-01
1.201300e-01
1.198940e-01
1.187190e-01
1.190610e-01
1.193440e-01
1.195690e-01
1.197360e-01
1.155900e-01
1.163990e-01
1.171130e-01
1.177320e-01
1.182560e-01
1.115760e-01
1.126790e-01
1.136920e-01
1.146170e-01
1.154530e-01
1.187290e-01
1.185250e-01
1.187970e-01
1.195440e-01
1.207660e-01
1.198940e-01
1.200070e-01
1.205170e-01
1.214240e-01
1.227270e-01
1.197360e-01
1.201460e-01
1.208800e-01
1.219380e-01
1.233210e-01
1.182560e-01
1.189410e-01
1.198840e-01
1.210860e-01
1.225460e-01
1.154530e-01
1.163920e-01
1.175310e-01
1.188680e-01
1.204040e-01
1.207660e-01
1.224130e-01
1.245810e-01
1.272680e-01
1.304760e-01
1.227270e-01
1.244120e-01
1.265730e-01
1.292110e-01
1.323250e-01
1.233210e-01
1.250400e-01
1.271930e-01
1.297770e-01
1.327940e-01
1.225460e-01
1.242990e-01
1.264400e-01
1.289680e-01
1.318840e-01
1.204040e-01
1.221880e-01
1.243140e-01
1.267830e-01
1.295940e-01
1.304760e-01
1.341100e-01
1.382820e-01
1.429930e-01
1.482410e-01
1.323250e-01
1.358290e-01
1.398390e-01
1.443570e-01
1.493830e-01
1.327940e-01
1.361630e-01
1.400080e-01
1.443300e-01
1.491280e-01
1.318840e-01
1.351130e-01
1.387880e-01
1.429100e-01
1.474770e-01
1.295940e-01
1.326790e-01
1.361800e-01
1.400970e-01
1.444300e-01
1.482410e-01
1.538940e-01
1.602210e-01
1.672230e-01
1.748990e-01
1.493830e-01
1.547680e-01
1.607960e-01
1.674640e-01
1.747740e-01
1.491280e-01
1.542450e-01
1.599700e-01
1.663050e-01
1.732490e-01
1.474770e-01
1.523220e-01
1.577450e-01
1.637460e-01
1.703250e-01
1.444300e-01
1.490020e-01
1.541210e-01
1.597870e-01
1.660010e-01
1.748990e-01
1.829330e-01
1.919130e-01
2.018400e-01
2.127120e-01
1.747740e-01
1.823850e-01
1.909160e-01
2.003660e-01
2.107360e-01
1.732490e-01
1.804400e-01
1.885200e-01
1.974910e-01
2.073510e-01
1.703250e-01
1.770980e-01
1.847270e-01
1.932150e-01
2.025590e-01
1.660010e-01
1.723580e-01
1.795370e-01
1.875370e-01
1.963590e-01
2.127120e-01
2.237140e-01
2.362040e-01
2.501810e-01
2.656450e-01
2.107360e-01
2.211490e-01
2.330650e-01
2.464840e-01
2.614060e-01
2.073510e-01
2.171720e-01
2.284930e-01
2.413130e-01
2.556340e-01
2.025590e-01
2.117840e-01
2.224870e-01
2.346680e-01
2.483280e-01
1.963590e-01
2.049840e-01
2.150470e-01
2.265480e-01
2.394870e-01
2.656450e-01
2.809300e-01
2.984340e-01
3.181580e-01
3.401010e-01
2.614060e-01
2.758900e-01
2.927700e-01
3.120450e-01
3.337160e-01
2.556340e-01
2.692470e-01
2.854050e-01
3.041070e-01
3.253530e-01
2.483280e-01
2.610010e-01
2.763400e-01
2.943440e-01
3.150120e-01
2.394870e-01
2.511520e-01
2.655740e-01
2.827550e-01
3.026940e-01
3.401010e-01
3.630990e-01
3.882540e-01
4.155680e-01
4.450400e-01
3.337160e-01
3.559090e-01
3.806540e-01
4.079520e-01
4.378020e-01
3.253530e-01
3.464610e-01
3.705240e-01
3.975430e-01
4.275170e-01
3.150120e-01
3.347550e-01
3.578640e-01
3.843410e-01
4.141850e-01
3.026940e-01
3.207910e-01
3.426750e-01
3.683460e-01
3.978050e-01
4.450400e-01
4.813820e-01
5.177070e-01
5.540150e-01
5.903060e-01
4.378020e-01
4.747910e-01
5.120330e-01
5.495300e-01
5.872800e-01
4.275170e-01
4.647570e-01
5.024110e-01
5.404780e-01
5.789600e-01
4.141850e-01
4.512810e-01
4.888390e-01
5.268610e-01
5.653450e-01
3.978050e-01
4.343620e-01
4.713190e-01
5.086770e-01
5.464360e-01
5.903060e-01
6.388750e-01
6.834380e-01
7.239960e-01
7.605480e-01
5.872800e-01
6.397350e-01
6.877930e-01
7.314520e-01
7.707140e-01
5.789600e-01
6.348560e-01
6.858860e-01
7.320490e-01
7.733450e-01
5.653450e-01
6.242370e-01
6.777180e-01
7.257860e-01
7.684430e-01
5.464360e-01
6.078790e-01
6.632880e-01
7.126640e-01
7.560060e-01
7.605480e-01
7.948400e-01
8.222830e-01
8.428770e-01
8.566210e-01
7.707140e-01
8.091220e-01
8.402120e-01
8.639830e-01
8.804370e-01
7.733450e-01
8.155180e-01
8.499520e-01
8.766460e-01
8.956010e-01
7.684430e-01
8.140290e-01
8.515040e-01
8.808650e-01
9.021140e-01
7.560060e-01
8.046560e-01
8.448670e-01
8.766400e-01
8.999740e-01
8.566210e-01
8.455240e-01
8.243830e-01
7.931980e-01
7.519690e-01
8.804370e-01
8.703490e-01
8.523290e-01
8.263760e-01
7.924900e-01
8.956010e-01
8.860600e-01
8.702780e-01
8.482560e-01
8.199930e-01
9.021140e-01
8.926550e-01
8.782290e-01
8.588370e-01
8.344780e-01
8.999740e-01
8.901350e-01
8.761840e-01
8.581200e-01
8.359450e-01
7.519690e-01
6.734550e-01
5.850500e-01
4.867540e-01
3.785660e-01
7.924900e-01
7.243870e-01
6.428750e-01
5.479560e-01
4.396290e-01
8.199930e-01
7.604230e-01
6.857630e-01
5.960160e-01
4.911790e-01
8.344780e-01
7.815630e-01
7.137150e-01
6.309330e-01
5.332170e-01
8.359450e-01
7.878090e-01
7.267300e-01
6.527080e-01
5.657420e-01
3.785660e-01
3.026500e-01
2.378570e-01
1.841870e-01
1.416400e-01
4.396290e-01
3.561250e-01
2.836990e-01
2.223510e-01
1.720810e-01
4.911790e-01
4.037260e-01
3.263130e-01
2.589410e-01
2.016080e-01
5.332170e-01
4.454530e-01
3.657000e-01
2.939570e-01
2.302230e-01
5.657420e-01
4.813070e-01
4.018590e-01
3.273980e-01
2.579250e-01
1.416400e-01
1.108860e-01
9.057690e-02
8.071410e-02
8.129720e-02
1.720810e-01
1.359110e-01
1.111360e-01
9.775490e-02
9.576780e-02
2.016080e-01
1.608050e-01
1.320080e-01
1.152180e-01
1.104350e-01
2.302230e-01
1.855660e-01
1.531930e-01
1.331040e-01
1.253000e-01
2.579250e-01
2.101950e-01
1.746910e-01
1.514130e-01
1.403610e-01
8.129720e-02
8.189380e-02
8.235020e-02
8.266620e-02
8.284200e-02
9.576780e-02
9.542150e-02
9.511320e-02
9.484290e-02
9.461070e-02
1.104350e-01
1.086690e-01
1.072160e-01
1.060740e-01
1.052460e-01
1.253000e-01
1.216370e-01
1.186570e-01
1.163610e-01
1.147470e-01
1.403610e-01
1.343250e-01
1.294390e-01
1.257020e-01
1.231160e-01
8.284200e-02
8.115580e-02
7.887910e-02
7.601200e-02
7.255450e-02
9.461070e-02
9.236940e-02
8.968690e-02
8.656300e-02
8.299780e-02
1.052460e-01
1.023570e-01
9.920370e-02
9.578660e-02
9.210540e-02
1.147470e-01
1.111180e-01
1.074300e-01
1.036830e-01
9.987740e-02
1.231160e-01
1.186530e-01
1.143650e-01
1.102520e-01
1.063140e-01
8.939170e-02
9.315940e-02
9.665990e-02
9.989330e-02
1.028600e-01
8.740010e-02
9.090260e-02
9.411130e-02
9.702610e-02
9.964700e-02
8.530680e-02
8.854130e-02
9.146790e-02
9.408660e-02
9.639750e-02
8.311190e-02
8.607540e-02
8.872980e-02
9.107500e-02
9.311110e-02
8.081530e-02
8.350490e-02
8.589690e-02
8.799120e-02
8.978790e-02
1.028600e-01
1.056360e-01
1.080140e-01
1.099940e-01
1.115760e-01
9.964700e-02