<?xml version="1.0"?>
<VTKFile type="UnstructuredGrid" version="0.1" byte_order="LittleEndian" compressor="vtkZLibDataCompressor">
<UnstructuredGrid>
<Piece NumberOfPoints="10000" NumberOfCells="6400">
<Points>
<DataArray type="Float32" NumberOfComponents="3" format="ascii">
-3.360000e+00 0.000000e+00 0.000000e+00
-3.276000e+00 0.000000e+00 0.000000e+00
-3.192000e+00 0.000000e+00 0.000000e+00
-3.108000e+00 0.000000e+00 0.000000e+00
-3.024000e+00 0.000000e+00 0.000000e+00
-3.360000e+00 6.412500e-02 0.000000e+00
-3.276000e+00 6.412500e-02 0.000000e+00
-3.192000e+00 6.412500e-02 0.000000e+00
-3.108000e+00 6.412500e-02 0.000000e+00
-3.024000e+00 6.412500e-02 0.000000e+00
-3.360000e+00 1.282500e-01 0.000000e+00
-3.276000e+00 1.282500e-01 0.000000e+00
-3.192000e+00 1.282500e-01 0.000000e+00
-3.108000e+00 1.282500e-01 0.000000e+00
-3.024000e+00 1.282500e-01 0.000000e+00
-3.360000e+00 1.923750e-01 0.000000e+00
-3.276000e+00 1.923750e-01 0.000000e+00
-3.192000e+00 1.923750e-01 0.000000e+00
-3.108000e+00 1.923750e-01 0.000000e+00
-3.024000e+00 1.923750e-01 0.000000e+00
-3.360000e+00 2.565000e-01 0.000000e+00
-3.276000e+00 2.565000e-01 0.000000e+00
-3.192000e+00 2.565000e-01 0.000000e+00
-3.108000e+00 2.565000e-01 0.000000e+00
-3.024000e+00 2.565000e-01 0.000000e+00
-3.024000e+00 0.000000e+00 0.000000e+00
-2.940000e+00 0.000000e+00 0.000000e+00
-2.856000e+00 0.000000e+00 0.000000e+00
-2.772000e+00 0.000000e+00 0.000000e+00
-2.688000e+00 0.000000e+00 0.000000e+00
-3.024000e+00 6.412500e-02 0.000000e+00
-2.940000e+00 6.412500e-02 0.000000e+00
-2.856000e+00 6.412500e-02 0.000000e+00
-2.772000e+00 6.412500e-02 0.000000e+00
-2.688000e+00 6.412500e-02 0.000000e+00
-3.024000e+00 1.282500e-01 0.000000e+00
-2.940000e+00 1.282500e-01 0.000000e+00
-2.856000e+00 1.282500e-01 0.000000e+00
-2.772000e+00 1.282500e-01 0.000000e+00
-2.688000e+00 1.282500e-01 0.000000e+00
-3.024000e+00 1.923750e-01 0.000000e+00
-2.940000e+00 1.923750e-01 0.000000e+00
-2.856000e+00 1.923750e-01 0.000000e+00
-2.772000e+00 1.923750e-01 0.000000e+00
-2.688000e+00 1.923750e-01 0.000000e+00
-3.024000e+00 2.565000e-01 0.000000e+00
-2.940000e+00 2.565000e-01 0.000000e+00
-2.856000e+00 2.565000e-01 0.000000e+00
-2.772000e+00 2.565000e-01 0.000000e+00
-2.688000e+00 2.565000e-01 0.000000e+00
-2.688000e+00 0.000000e+00 0.000000e+00
-2.604000e+00 0.000000e+00 0.000000e+00
-2.520000e+00 0.000000e+00 0.000000e+00
-2.436000e+00 0.000000e+00 0.000000e+00
-2.352000e+00 0.000000e+00 0.000000e+00
-2.688000e+00 6.412500e-02 0.000000e+00
-2.604000e+00 6.412500e-02 0.000000e+00
-2.520000e+00 6.412500e-02 0.000000e+00
-2.436000e+00 6.412500e-02 0.000000e+00
-2.352000e+00 6.412500e-02 0.000000e+00
-2.688000e+00 1.282500e-01 0.000000e+00
-2.604000e+00 1.282500e-01 0.000000e+00
-2.520000e+00 1.282500e-01 0.000000e+00
-2.436000e+00 1.282500e-01 0.000000e+00
-2.352000e+00 1.282500e-01 0.000000e+00
-2.688000e+00 1.923750e-01 0.000000e+00
-2.604000e+00 1.923750e-01 0.000000e+00
-2.520000e+00 1.923750e-01 0.000000e+00
-2.436000e+00 1.923750e-01 0.000000e+00
-2.352000e+00 1.923750e-01 0.000000e+00
-2.688000e+00 2.565000e-01 0.000000e+00
-2.604000e+00 2.565000e-01 0.000000e+00
-2.520000e+00 2.565000e-01 0.000000e+00
-2.436000e+00 2.565000e-01 0.000000e+00
-2.352000e+00 2.565000e-01 0.000000e+00
-2.352000e+00 0.000000e+00 0.000000e+00
-2.268000e+00 0.000000e+00 0.000000e+00
-2.184000e+00 0.000000e+00 0.000000e+00
-2.100000e+00 0.000000e+00 0.000000e+00
-2.016000e+00 0.000000e+00 0.000000e+00
-2.352000e+00 6.412500e-02 0.000000e+00
-2.268000e+00 6.412500e-02 0.000000e+00
-2.184000e+00 6.412500e-02 0.000000e+00
-2.100000e+00 6.412500e-02 0.000000e+00
-2.016000e+00 6.412500e-02 0.000000e+00
-2.352000e+00 1.282500e-01 0.000000e+00
-2.268000e+00 1.282500e-01 0.000000e+00
-2.184000e+00 1.282500e-01 0.000000e+00
-2.100000e+00 1.282500e-01 0.000000e+00
-2.016000e+00 1.282500e-01 0.000000e+00
-2.352000e+00 1.923750e-01 0.000000e+00
-2.268000e+00 1.923750e-01 0.000000e+00
-2.184000e+00 1.923750e-01 0.000000e+00
-2.100000e+00 1.923750e-01 0.000000e+00
-2.016000e+00 1.923750e-01 0.000000e+00
-2.352000e+00 2.565000e-01 0.000000e+00
-2.268000e+00 2.565000e-01 0.000000e+00
-2.184000e+00 2.565000e-01 0.000000e+00
-2.100000e+00 2.565000e-01 0.000000e+00
-2.016000e+00 2.565000e-01 0.000000e+00
-2.016000e+00 0.000000e+00 0.000000e+00
-1.932000e+00 0.000000e+00 0.000000e+00
-1.848000e+00 0.000000e+00 0.000000e+00
-1.764000e+00 0.000000e+00 0.000000e+00
-1.680000e+00 0.000000e+00 0.000000e+00
-2.016000e+00 6.412500e-02 0.000000e+00
-1.932000e+00 6.412500e-02 0.000000e+00
-1.848000e+00 6.412500e-02 0.000000e+00
-1.764000e+00 6.412500e-02 0.000000e+00
-1.680000e+00 6.412500e-02 0.000000e+00
-2.016000e+00 1.282500e-01 0.000000e+00
-1.932000e+00 1.282500e-01 0.000000e+00
-1.848000e+00 1.282500e-01 0.000000e+00
-1.764000e+00 1.282500e-01 0.000000e+00
-1.680000e+00 1.282500e-01 0.000000e+00
-2.016000e+00 1.923750e-01 0.000000e+00
-1.932000e+00 1.923750e-01 0.000000e+00
-1.848000e+00 1.923750e-01 0.000000e+00
-1.764000e+00 1.923750e-01 0.000000e+00
-1.680000e+00 1.923750e-01 0.000000e+00
-2.016000e+00 2.565000e-01 0.000000e+00
-1.932000e+00 2.565000e-01 0.000000e+00
-1.848000e+00 2.565000e-01 0.000000e+00
-1.764000e+00 2.565000e-01 0.000000e+00
-1.680000e+00 2.565000e-01 0.000000e+00
-1.680000e+00 0.000000e+00 0.000000e+00
-1.596000e+00 0.000000e+00 0.000000e+00
-1.512000e+00 0.000000e+00 0.000000e+00
-1.428000e+00 0.000000e+00 0.000000e+00
-1.344000e+00 0.000000e+00 0.000000e+00
-1.680000e+00 6.412500e-02 0.000000e+00
-1.596000e+00 6.412500e-02 0.000000e+00
-1.512000e+00 6.412500e-02 0.000000e+00
-1.428000e+00 6.412500e-02 0.000000e+00
-1.344000e+00 6.412500e-02 0.000000e+00
-1.680000e+00 1.282500e-01 0.000000e+00
-1.596000e+00 1.282500e-01 0.000000e+00
-1.512000e+00 1.282500e-01 0.000000e+00
-1.428000e+00 1.282500e-01 0.000000e+00
-1.344000e+00 1.282500e-01 0.000000e+00
-1.680000e+00 1.923750e-01 0.000000e+00
-1.596000e+00 1.923750e-01 0.000000e+00
-1.512000e+00 1.923750e-01 0.000000e+00
-1.428000e+00 1.923750e-01 0.000000e+00
-1.344000e+00 1.923750e-01 0.000000e+00
-1.680000e+00 2.565000e-01 0.000000e+00
-1.596000e+00 2.565000e-01 0.000000e+00
-1.512000e+00 2.565000e-01 0.000000e+00
-1.428000e+00 2.565000e-01 0.000000e+00
-1.344000e+00 2.565000e-01 0.000000e+00
-1.344000e+00 0.000000e+00 0.000000e+00
-1.260000e+00 0.000000e+00 0.000000e+00
-1.176000e+00 0.000000e+00 0.000000e+00
-1.092000e+00 0.000000e+00 0.000000e+00
-1.008000e+00 0.000000e+00 0.000000e+00
-1.344000e+00 6.412500e-02 0.000000e+00
-1.260000e+00 6.412500e-02 0.000000e+00
-1.176000e+00 6.412500e-02 0.000000e+00
-1.092000e+00 6.412500e-02 0.000000e+00
-1.008000e+00 6.412500e-02 0.000000e+00
-1.344000e+00 1.282500e-01 0.000000e+00
-1.260000e+00 1.282500e-01 0.000000e+00
-1.176000e+00 1.282500e-01 0.000000e+00
-1.092000e+00 1.282500e-01 0.000000e+00
-1.008000e+00 1.282500e-01 0.000000e+00
-1.344000e+00 1.923750e-01 0.000000e+00
-1.260000e+00 1.923750e-01 0.000000e+00
-1.176000e+00 1.923750e-01 0.000000e+00
-1.092000e+00 1.923750e-01 0.000000e+00
-1.008000e+00 1.923750e-01 0.000000e+00
-1.344000e+00 2.565000e-01 0.000000e+00
-1.260000e+00 2.565000e-01 0.000000e+00
-1.176000e+00 2.565000e-01 0.000000e+00
-1.092000e+00 2.565000e-01 0.000000e+00
-1.008000e+00 2.565000e-01 0.000000e+00
-1.008000e+00 0.000000e+00 0.000000e+00
-9.240000e-01 0.000000e+00 0.000000e+00
-8.400000e-01 0.000000e+00 0.000000e+00
-7.560000e-01 0.000000e+00 0.000000e+00
-6.720000e-01 0.000000e+00 0.000000e+00
-1.008000e+00 6.412500e-02 0.000000e+00
-9.240000e-01 6.412500e-02 0.000000e+00
-8.400000e-01 6.412500e-02 0.000000e+00
-7.560000e-01 6.412500e-02 0.000000e+00
-6.720000e-01 6.412500e-02 0.000000e+00
-1.008000e+00 1.282500e-01 0.000000e+00
-9.240000e-01 1.282500e-01 0.000000e+00
-8.400000e-01 1.282500e-01 0.000000e+00
-7.560000e-01 1.282500e-01 0.000000e+00
-6.720000e-01 1.282500e-01 0.000000e+00
-1.008000e+00 1.923750e-01 0.000000e+00
-9.240000e-01 1.923750e-01 0.000000e+00
-8.400000e-01 1.923750e-01 0.000000e+00
-7.560000e-01 1.923750e-01 0.000000e+00
-6.720000e-01 1.923750e-01 0.000000e+00
-1.008000e+00 2.565000e-01 0.000000e+00
-9.240000e-01 2.565000e-01 0.000000e+00
-8.400000e-01 2.565000e-01 0.000000e+00
-7.560000e-01 2.565000e-01 0.000000e+00
-6.720000e-01 2.565000e-01 0.000000e+00
-6.720000e-01 0.000000e+00 0.000000e+00
-5.880000e-01 0.000000e+00 0.000000e+00
-5.040000e-01 0.000000e+00 0.000000e+00
-4.200000e-01 0.000000e+00 0.000000e+00
-3.360000e-01 0.000000e+00 0.000000e+00
-6.720000e-01 6.412500e-02 0.000000e+00
-5.880000e-01 6.412500e-02 0.000000e+00
-5.040000e-01 6.412500e-02 0.000000e+00
-4.200000e-01 6.412500e-02 0.000000e+00
-3.360000e-01 6.412500e-02 0.000000e+00
-6.720000e-01 1.282500e-01 0.000000e+00
-5.880000e-01 1.282500e-01 0.000000e+00
-5.040000e-01 1.282500e-01 0.000000e+00
-4.200000e-01 1.282500e-01 0.000000e+00
-3.360000e-01 1.282500e-01 0.000000e+00
-6.720000e-01 1.923750e-01 0.000000e+00
-5.880000e-01 1.923750e-01 0.000000e+00
-5.040000e-01 1.923750e-01 0.000000e+00
-4.200000e-01 1.923750e-01 0.000000e+00
-3.360000e-01 1.923750e-01 0.000000e+00
-6.720000e-01 2.565000e-01 0.000000e+00
-5.880000e-01 2.565000e-01 0.000000e+00
-5.040000e-01 2.565000e-01 0.000000e+00
-4.200000e-01 2.565000e-01 0.000000e+00
-3.360000e-01 2.565000e-01 0.000000e+00
-3.360000e-01 0.000000e+00 0.000000e+00
-2.520000e-01 0.000000e+00 0.000000e+00
-1.680000e-01 0.000000e+00 0.000000e+00
-8.400000e-02 0.000000e+00 0.000000e+00
-4.440890e-16 0.000000e+00 0.000000e+00
-3.360000e-01 6.412500e-02 0.000000e+00
-2.520000e-01 6.412500e-02 0.000000e+00
-1.680000e-01 6.412500e-02 0.000000e+00
-8.400000e-02 6.412500e-02 0.000000e+00
-4.440890e-16 6.412500e-02 0.000000e+00
-3.360000e-01 1.282500e-01 0.000000e+00
-2.520000e-01 1.282500e-01 0.000000e+00
-1.680000e-01 1.282500e-01 0.000000e+00
-8.400000e-02 1.282500e-01 0.000000e+00
-4.440890e-16 1.282500e-01 0.000000e+00
-3.360000e-01 1.923750e-01 0.000000e+00
-2.520000e-01 1.923750e-01 0.000000e+00
-1.680000e-01 1.923750e-01 0.000000e+00
[...]
<PointData>
<DataArray type="Float32" Name="V1" format="ascii">
0.000000e+00
0.000000e+00
0.000000e+00
0.000000e+00
0.000000e+00
6.347820e-02
5.966160e-02
5.537640e-02
5.062260e-02
4.540020e-02
1.013490e-01
9.777600e-02
9.295750e-02
8.689320e-02
7.958290e-02
1.136110e-01
1.143430e-01
1.127430e-01
1.088120e-01
1.025480e-01
1.002660e-01
1.093630e-01
1.147340e-01
1.163780e-01
1.142960e-01
0.000000e+00
0.000000e+00
0.000000e+00
0.000000e+00
0.000000e+00
4.540020e-02
3.972290e-02
3.544880e-02
3.257780e-02
3.110980e-02
7.958290e-02
7.134630e-02
6.499080e-02
6.051640e-02
5.792310e-02
1.025480e-01
9.487020e-02
8.862610e-02
8.381590e-02
8.043970e-02
1.142960e-01
1.102950e-01
1.063550e-01
1.024760e-01
9.865980e-02
0.000000e+00
0.000000e+00
0.000000e+00
0.000000e+00
0.000000e+00
3.110980e-02
2.986600e-02
2.891890e-02
2.826850e-02
2.791480e-02
5.792310e-02
5.582140e-02
5.427410e-02
5.328120e-02
5.284250e-02
8.043970e-02
7.786630e-02
7.606580e-02
7.503810e-02
7.478320e-02
9.865980e-02
9.600070e-02
9.429380e-02
9.353920e-02
9.373680e-02
0.000000e+00
0.000000e+00
0.000000e+00
0.000000e+00
0.000000e+00
2.791480e-02
2.769870e-02
2.778890e-02
2.818550e-02
2.888840e-02
5.284250e-02
5.266660e-02
5.299850e-02
5.383810e-02
5.518550e-02
7.478320e-02
7.490370e-02
7.562860e-02
7.695780e-02
7.889140e-02
9.373680e-02
9.441000e-02
9.567930e-02
9.754470e-02
1.000060e-01
0.000000e+00
0.000000e+00
0.000000e+00
0.000000e+00
0.000000e+00
2.888840e-02
2.975460e-02
3.084630e-02
3.216340e-02
3.370580e-02
5.518550e-02
5.683700e-02
5.889740e-02
6.136660e-02
6.424460e-02
7.889140e-02
8.124710e-02
8.415320e-02
8.760960e-02
9.161640e-02
1.000060e-01
1.029850e-01
1.066140e-01
1.108920e-01
1.158210e-01
0.000000e+00
0.000000e+00
0.000000e+00
0.000000e+00
0.000000e+00
3.370580e-02
3.546650e-02
3.760590e-02
4.012390e-02
4.302060e-02
6.424460e-02
6.750790e-02
7.141940e-02
7.597910e-02
8.118710e-02
9.161640e-02
9.612420e-02
1.014410e-01
1.075660e-01
1.144990e-01
1.158210e-01
1.213150e-01
1.276700e-01
1.348830e-01
1.429570e-01
0.000000e+00
0.000000e+00
0.000000e+00
0.000000e+00
0.000000e+00
4.302060e-02
4.619360e-02
4.999700e-02
5.443080e-02
5.949510e-02
8.118710e-02
8.687200e-02
9.361690e-02
1.014220e-01
1.102870e-01
1.144990e-01
1.220350e-01
1.308600e-01
1.409730e-01
1.523750e-01
1.429570e-01
1.516830e-01
1.617250e-01
1.730840e-01
1.857590e-01
0.000000e+00
0.000000e+00
0.000000e+00
0.000000e+00
0.000000e+00
5.949510e-02
6.479200e-02
7.121230e-02
7.875610e-02
8.742330e-02
1.102870e-01
1.195420e-01
1.306410e-01
1.435840e-01
1.583700e-01
1.523750e-01
1.642500e-01
1.782860e-01
1.944830e-01
2.128400e-01
1.857590e-01
1.989160e-01
2.141480e-01
2.314530e-01
2.508330e-01
0.000000e+00
0.000000e+00
0.000000e+00
0.000000e+00
0.000000e+00
8.742330e-02
9.607800e-02
1.064610e-01
1.185710e-01
1.324090e-01
1.583700e-01
1.731660e-01
1.907350e-01
2.110780e-01
2.341940e-01
2.128400e-01
2.312640e-01
2.528240e-01
2.775210e-01
3.053550e-01
2.508330e-01
2.703710e-01
2.927270e-01
3.179000e-01
3.458910e-01
0.000000e+00
0.000000e+00
0.000000e+00
0.000000e+00
0.000000e+00
1.324090e-01
1.466440e-01
1.622800e-01
1.793190e-01
1.977600e-01
2.341940e-01
2.581340e-01
2.843050e-01
3.127070e-01
3.433390e-01
3.053550e-01
3.344720e-01
3.660750e-01
4.001640e-01
4.367380e-01
3.458910e-01
3.756560e-01
4.075890e-01
4.416890e-01
4.779570e-01
0.000000e+00
0.000000e+00
0.000000e+00
0.000000e+00
0.000000e+00
1.977600e-01
2.194630e-01
2.396850e-01
2.584250e-01
2.756840e-01
3.433390e-01
3.795920e-01
4.137370e-01
4.457750e-01
4.757060e-01
4.367380e-01
4.803860e-01
5.221570e-01
5.620500e-01
6.000660e-01
4.779570e-01
5.218470e-01
5.649450e-01
6.072500e-01
6.487630e-01
0.000000e+00
0.000000e+00
0.000000e+00
0.000000e+00
0.000000e+00
2.756840e-01
2.970790e-01
3.127160e-01
3.225950e-01
3.267160e-01
4.757060e-01
5.128140e-01
5.413810e-01
5.614080e-01
5.728940e-01
6.000660e-01
6.472060e-01
6.859970e-01
7.164400e-01
7.385350e-01
6.487630e-01
7.002540e-01
7.465630e-01
7.876920e-01
8.236390e-01
0.000000e+00
0.000000e+00
0.000000e+00
0.000000e+00
0.000000e+00
3.267160e-01
3.221950e-01
3.115130e-01
2.946710e-01
2.716680e-01
5.728940e-01
5.713210e-01
5.595690e-01
5.376390e-01
5.055300e-01
7.385350e-01
7.473800e-01
7.441690e-01
7.289040e-01
7.015830e-01
8.236390e-01
8.503700e-01
8.653120e-01
8.684650e-01
8.598300e-01
0.000000e+00
0.000000e+00
0.000000e+00
0.000000e+00
0.000000e+00
2.716680e-01
2.324330e-01
1.954990e-01
1.608670e-01
1.285370e-01
5.055300e-01
4.450440e-01
3.850600e-01
3.255760e-01
2.665930e-01
7.015830e-01
6.378360e-01
5.686840e-01
4.941270e-01
4.141660e-01
8.598300e-01
8.108060e-01
7.463700e-01
6.665200e-01
5.712590e-01
0.000000e+00
0.000000e+00
0.000000e+00
0.000000e+00
0.000000e+00
1.285370e-01
1.022740e-01
7.746310e-02
5.410570e-02
3.220140e-02
2.665930e-01
2.148000e-01
1.658360e-01
1.197000e-01
7.639300e-02
4.141660e-01
3.375790e-01
2.651180e-01
1.967840e-01
1.325750e-01
5.712590e-01
4.706120e-01
3.753110e-01
2.853560e-01
2.007470e-01
0.000000e+00
0.000000e+00
0.000000e+00
0.000000e+00
0.000000e+00
3.220140e-02
1.837710e-02
6.707390e-03
-2.807690e-03
-1.016820e-02
7.639300e-02
4.911620e-02
2.655950e-02
8.723140e-03
-4.393030e-03
1.325750e-01
9.221720e-02
5.955640e-02
3.459250e-02
1.732540e-02
2.007470e-01
1.476800e-01
1.056980e-01
7.480040e-02
5.498710e-02
0.000000e+00
0.000000e+00
0.000000e+00
0.000000e+00
0.000000e+00
-1.016820e-02
-1.526020e-02
-1.656820e-02
-1.409200e-02
-7.831740e-03
-4.393030e-03
-1.360040e-02
-1.627500e-02
-1.241690e-02
-2.026150e-03
1.732540e-02
4.979620e-03
8.795850e-04
5.025300e-03
1.741680e-02
5.498710e-02
4.047970e-02
3.489550e-02
3.823460e-02
5.049700e-02
0.000000e+00
0.000000e+00
0.000000e+00
0.000000e+00
0.000000e+00
-7.831740e-03
-4.273660e-03
-7.694410e-04
2.680930e-03
6.077450e-03
-2.026150e-03
4.004210e-03
9.733140e-03
1.516060e-02
2.028670e-02
1.741680e-02
2.483360e-02
3.150770e-02
3.743910e-02
4.262780e-02
5.049700e-02
5.821460e-02
6.455440e-02
6.951640e-02
7.310070e-02
0.000000e+00
0.000000e+00
0.000000e+00
0.000000e+00
0.000000e+00
6.077450e-03
8.768150e-03
1.070190e-02
1.187880e-02
1.229880e-02
2.028670e-02
2.428220e-02
2.705080e-02
2.859230e-02
2.890690e-02
4.262780e-02
4.654230e-02
4.904650e-02
5.014050e-02
4.982420e-02
7.310070e-02
7.554830e-02
7.668920e-02
7.652340e-02
7.505080e-02
0.000000e+00
0.000000e+00
0.000000e+00
0.000000e+00
0.000000e+00
1.229880e-02
1.321070e-02
1.280700e-02
1.108780e-02
8.052920e-03
2.890690e-02
2.979670e-02
2.885190e-02
2.607240e-02
2.145840e-02
4.982420e-02
4.975790e-02
4.813450e-02
4.495400e-02
4.021650e-02
7.505080e-02
7.309430e-02
7.065490e-02
6.773240e-02
6.432710e-02
1.002660e-01
1.093630e-01
1.147340e-01
1.163780e-01
1.142960e-01
9.945850e-02
1.077550e-01
1.136790e-01
1.172280e-01
1.184030e-01
9.848610e-02
1.058040e-01
1.117980e-01
1.164690e-01
1.198160e-01
9.734850e-02
1.035070e-01
1.090910e-01
1.141010e-01
1.185360e-01
9.604590e-02
1.008660e-01
1.055590e-01
1.101250e-01
1.145630e-01
1.142960e-01
1.102950e-01
1.063550e-01
1.024760e-01
9.865980e-02
1.184030e-01
1.172410e-01
1.155410e-01
1.133020e-01
1.105240e-01
1.198160e-01
1.208370e-01
1.209380e-01
1.201190e-01
1.183800e-01
1.185360e-01
1.210810e-01
1.225440e-01
1.229260e-01
1.222270e-01
1.145630e-01
1.179730e-01
1.203600e-01
1.217240e-01
1.220650e-01
9.865980e-02
9.600070e-02
9.429380e-02
9.353920e-02
9.373680e-02
1.105240e-01
1.083790e-01
1.070960e-01
1.066750e-01
1.071180e-01
1.183800e-01
1.168570e-01
1.160640e-01
1.160020e-01
1.166710e-01
1.222270e-01
1.214340e-01
1.211980e-01
1.215190e-01
1.223960e-01
1.220650e-01
1.221120e-01
1.224990e-01
1.232260e-01
1.242930e-01
9.373680e-02
9.441000e-02
9.567930e-02
9.754470e-02
1.000060e-01
1.071180e-01
1.081190e-01
1.097210e-01
1.119230e-01
1.147250e-01
1.166710e-01
1.179320e-01
1.197790e-01
1.222100e-01
1.252260e-01
1.223960e-01
1.238490e-01
1.258520e-01
1.284050e-01
1.315090e-01
1.242930e-01
1.258680e-01
1.279400e-01
1.305090e-01
1.335740e-01
1.000060e-01
1.029850e-01
1.066140e-01
1.108920e-01
1.158210e-01
1.147250e-01
1.180340e-01
1.220120e-01
1.266580e-01
1.319730e-01
1.252260e-01
1.287300e-01
1.328970e-01
1.377270e-01
1.432210e-01
1.315090e-01
1.350710e-01
1.392680e-01
1.441000e-01
1.495660e-01
1.335740e-01
1.370590e-01
1.411260e-01
1.457750e-01
1.510070e-01
1.158210e-01
1.213150e-01
1.276700e-01
1.348830e-01
1.429570e-01
1.319730e-01
1.378510e-01
1.445810e-01
1.521610e-01
1.605910e-01
1.432210e-01
1.492590e-01
1.561210e-01
1.638080e-01
1.723180e-01
1.495660e-01
1.555390e-01
1.622920e-01
1.698240e-01
1.781370e-01
1.510070e-01
1.566900e-01
1.630910e-01
1.702110e-01
1.780480e-01
1.429570e-01
1.516830e-01
1.617250e-01
1.730840e-01
1.857590e-01
1.605910e-01
1.695990e-01
1.798840e-01
1.914460e-01
2.042860e-01
1.723180e-01
1.813320e-01
1.915690e-01
2.030290e-01
2.157110e-01
1.781370e-01
1.868820e-01
1.967800e-01
2.078310e-01
2.200350e-01
1.780480e-01
1.862480e-01
1.955170e-01
2.058540e-01
2.172590e-01
1.857590e-01
1.989160e-01
2.141480e-01
2.314530e-01
2.508330e-01
2.042860e-01
2.174250e-01
2.325960e-01
2.498000e-01
2.690360e-01
2.157110e-01
2.285370e-01
2.433470e-01
2.601430e-01
2.789240e-01
2.200350e-01
2.322530e-01
2.464020e-01
2.624840e-01
2.804970e-01
2.172590e-01
2.285720e-01
2.417600e-01
2.568220e-01
2.737570e-01
2.508330e-01
2.703710e-01
2.927270e-01
3.179000e-01
3.458910e-01
2.690360e-01
2.880740e-01
3.100170e-01
3.348650e-01
3.626170e-01
2.789240e-01
2.971580e-01
3.184050e-01
3.426640e-01
3.699370e-01
2.804970e-01
2.976230e-01
3.178900e-01
3.412990e-01
3.678500e-01
2.737570e-01
2.894690e-01
3.084720e-01
3.307680e-01
3.563560e-01
3.458910e-01
3.756560e-01
4.075890e-01
4.416890e-01
4.779570e-01
3.626170e-01
3.916390e-01
4.232550e-01
4.574640e-01
4.942660e-01
3.699370e-01
3.979080e-01
4.288950e-01
4.628970e-01
4.999150e-01
3.678500e-01
3.944620e-01
4.245080e-01
4.579890e-01
4.949050e-01
3.563560e-01
3.813010e-01
4.100950e-01
4.427400e-01
4.792350e-01
4.779570e-01
5.218470e-01
5.649450e-01
6.072500e-01
6.487630e-01
4.942660e-01
5.391730e-01
5.837310e-01
6.279380e-01
6.717950e-01
4.999150e-01
5.453740e-01
5.908890e-01
6.364610e-01
6.820890e-01
4.949050e-01
5.404480e-01
5.864200e-01
6.328190e-01
6.796460e-01
4.792350e-01
5.243970e-01
5.703230e-01
6.170130e-01
6.644670e-01
6.487630e-01
7.002540e-01
7.465630e-01
7.876920e-01
8.236390e-01
6.717950e-01
7.287890e-01
7.806390e-01
8.273440e-01
8.689050e-01
6.820890e-01
7.440820e-01
8.009210e-01
8.526060e-01
8.991370e-01
6.796460e-01
7.461340e-01
8.074110e-01
8.634780e-01
9.143350e-01
6.644670e-01
7.349440e-01
8.001080e-01
8.599600e-01
9.144990e-01
8.236390e-01
8.503700e-01
8.653120e-01
8.684650e-01
8.598300e-01
8.689050e-01
9.051630e-01
9.307210e-01
9.455780e-01
9.497340e-01
8.991370e-01
9.433650e-01
9.776740e-01
1.002070e+00
1.016540e+00
9.143350e-01
9.649740e-01
1.006170e+00
1.037930e+00
1.060240e+00
9.144990e-01
9.699910e-01
1.016210e+00
1.053170e+00
1.080850e+00
8.598300e-01
8.108060e-01
7.463700e-01
6.665200e-01
5.712590e-01
9.497340e-01
9.179300e-01
8.692610e-01
8.037260e-01
7.213260e-01
1.016540e+00
9.972370e-01
9.616170e-01
9.096780e-01
8.414210e-01
1.060240e+00
1.048730e+00
1.023440e+00
9.843770e-01
9.315430e-01
1.080850e+00
1.072400e+00
1.054720e+00
1.027820e+00
9.916930e-01
5.712590e-01
4.706120e-01
3.753110e-01
2.853560e-01
2.007470e-01
7.213260e-01
6.110090e-01
5.017130e-01
3.934400e-01
2.861890e-01
8.414210e-01
7.317440e-01
6.176030e-01
4.989980e-01
3.759290e-01
9.315430e-01
8.328190e-01
7.229810e-01
6.020290e-01
4.699650e-01
9.916930e-01
9.142320e-01
8.178450e-01
7.025340e-01
5.682970e-01
2.007470e-01
1.476800e-01
1.056980e-01
7.480040e-02
5.498710e-02
2.861890e-01
2.206400e-01
1.678700e-01
1.278790e-01
1.006690e-01
3.759290e-01
2.985560e-01
2.350750e-01
1.854870e-01
1.497920e-01
4.699650e-01
3.814280e-01
3.073140e-01
2.476240e-01
2.023560e-01
5.682970e-01
4.692570e-01
3.845870e-01
3.142890e-01
2.583620e-01
5.498710e-02
4.047970e-02
3.489550e-02
3.823460e-02
5.049700e-02
1.006690e-01
7.890020e-02
6.823810e-02
6.868250e-02
8.023360e-02
1.497920e-01
1.200490e-01
1.033360e-01
9.965370e-02
1.090010e-01
2.023560e-01
1.639270e-01
1.401910e-01
1.311480e-01
1.367990e-01
2.583620e-01
2.105330e-01
1.788010e-01
1.631660e-01
1.636280e-01
5.049700e-02
5.821460e-02
6.455440e-02
6.951640e-02
7.310070e-02
8.023360e-02
8.794710e-02
9.370620e-02
9.751080e-02
9.936110e-02
1.090010e-01
1.157850e-01
1.202950e-01
1.225300e-01
1.224890e-01
1.367990e-01
1.417300e-01
1.443210e-01
1.445730e-01
1.424840e-01
1.636280e-01
1.657800e-01
1.657840e-01
1.636400e-01
1.593470e-01
7.310070e-02
7.554830e-02
7.668920e-02
7.652340e-02
7.505080e-02
9.936110e-02
1.001490e-01
9.975960e-02
9.819190e-02
9.544630e-02
1.224890e-01
1.214860e-01
1.195030e-01
1.165410e-01
1.126000e-01
1.424840e-01
1.395570e-01
1.359190e-01
1.315710e-01
1.265130e-01
1.593470e-01
1.543640e-01
1.490090e-01
1.432820e-01
1.371840e-01
7.505080e-02
7.309430e-02
7.065490e-02
6.773240e-02
6.432710e-02
9.544630e-02
9.261680e-02
8.942770e-02
8.587910e-02
8.197100e-02
1.126000e-01
1.089490e-01
1.050650e-01
1.009500e-01
9.660330e-02
1.265130e-01
1.220900e-01
1.175670e-01
1.129450e-01
1.082240e-01
1.371840e-01
1.320410e-01
1.269340e-01
1.218650e-01
1.168330e-01
9.604590e-02
1.008660e-01
1.055590e-01
1.101250e-01
1.145630e-01
9.458900e-02
9.888630e-02
1.031090e-01
1.072560e-01
1.113290e-01
9.299440e-02
9.690900e-02
1.007360e-01
1.044750e-01
1.081270e-01
9.126190e-02
9.493450e-02
9.844100e-02
1.017810e-01
1.049560e-01
8.939170e-02
9.296280e-02
9.622400e-02
9.917530e-02
1.018170e-01
1.145630e-01
1.179730e-01
1.203600e-01
1.217240e-01
1.220650e-01
1.113290e-01
1.147230e-01
1.173190e-01
1.191180e-01
1.201200e-01
1.081270e-01
1.113590e-01
1.140070e-01
1.160690e-01
1.175470e-01
1.049560e-01
1.078820e-01
1.104230e-01
1.125770e-01
1.143450e-01
1.018170e-01
1.042920e-01
1.065670e-01
1.086410e-01
1.105150e-01
1.220650e-01
1.221120e-01
1.224990e-01
1.232260e-01
1.242930e-01
1.201200e-01
1.207750e-01
1.216470e-01
1.227360e-01
1.240410e-01
1.175470e-01
1.186800e-01
1.199400e-01
1.213260e-01
1.228390e-01
1.143450e-01
1.158270e-01
1.173780e-01
1.189970e-01
1.206860e-01
1.105150e-01
1.122160e-01
1.139610e-01
1.157490e-01
1.175820e-01
1.242930e-01
1.258680e-01
1.279400e-01
1.305090e-01
1.335740e-01
1.240410e-01
1.257520e-01
1.279020e-01
1.304910e-01
1.335210e-01
1.228390e-01
1.246680e-01
1.268830e-01
1.294830e-01
1.324700e-01
1.206860e-01
1.226180e-01
1.248840e-01
1.274850e-01
1.304210e-01
1.175820e-01
1.196010e-01
1.219050e-01
1.244960e-01
1.273730e-01
1.335740e-01
1.370590e-01
1.411260e-01
1.457750e-01
1.510070e-01
1.335210e-01
1.369320e-01
1.408840e-01
1.453770e-01
1.504100e-01
1.324700e-01
1.358000e-01
1.396290e-01
1.439570e-01
1.487840e-01
1.304210e-01
1.336610e-01
1.373590e-01
1.415150e-01
1.461290e-01
1.273730e-01
1.305170e-01
1.340760e-01
1.380530e-01
1.424450e-01
1.510070e-01
1.566900e-01
1.630910e-01
1.702110e-01
1.780480e-01
1.504100e-01
1.558430e-01
1.619560e-01
1.687490e-01
1.762220e-01
1.487840e-01
1.539590e-01
1.597760e-01
1.662330e-01
1.733320e-01
1.461290e-01
1.510390e-01
1.565510e-01
1.626640e-01
1.693780e-01
1.424450e-01
1.470830e-01
1.522820e-01
1.580410e-01
1.643610e-01
1.780480e-01
1.862480e-01
1.955170e-01
2.058540e-01
2.172590e-01
1.762220e-01
1.840000e-01
1.928000e-01
2.026230e-01
2.134690e-01
1.733320e-01
1.806740e-01
1.889880e-01
1.982750e-01
2.085340e-01
1.693780e-01
1.762720e-01
1.840830e-01
1.928100e-01
2.024540e-01
1.643610e-01
1.707940e-01
1.780830e-01
1.862270e-01
1.952280e-01
2.172590e-01
2.285720e-01
2.417600e-01
2.568220e-01
2.737570e-01
2.134690e-01
2.241430e-01
2.366610e-01
2.510240e-01
2.672330e-01
2.085340e-01
2.185370e-01
2.303310e-01
2.439140e-01
2.592880e-01
2.024540e-01
2.117570e-01
2.227690e-01
2.354920e-01
2.499240e-01
1.952280e-01
2.038000e-01
2.139760e-01
2.257560e-01
2.391390e-01
2.737570e-01
2.894690e-01
3.084720e-01
3.307680e-01
3.563560e-01
2.672330e-01
2.818330e-01
2.999260e-01
3.215110e-01
3.465880e-01
2.592880e-01
2.726990e-01
2.897270e-01
3.103720e-01
3.346340e-01
2.499240e-01
2.620660e-01
2.778750e-01
2.973520e-01
3.204960e-01
2.391390e-01
2.499340e-01
2.643710e-01
2.824500e-01
3.041720e-01
3.563560e-01
3.813010e-01
4.100950e-01
4.427400e-01
4.792350e-01
3.465880e-01
3.699340e-01
3.975810e-01
4.295280e-01
4.657750e-01
3.346340e-01
3.558320e-01
3.818470e-01
4.126800e-01
4.483300e-01
3.204960e-01
3.389940e-01
3.628930e-01
3.921940e-01
4.268970e-01
3.041720e-01
3.194190e-01
3.407190e-01
3.680720e-01
4.014790e-01
4.792350e-01
5.243970e-01
5.703230e-01
6.170130e-01
6.644670e-01
4.657750e-01
5.104060e-01
5.559560e-01
6.024250e-01
6.498140e-01
4.483300e-01
4.914550e-01
5.354400e-01
5.802820e-01
6.259840e-01
4.268970e-01
4.675460e-01
5.087750e-01
5.505860e-01
5.929770e-01
4.014790e-01
4.386770e-01
4.759620e-01
5.133350e-01
5.507940e-01
6.644670e-01
7.349440e-01
8.001080e-01
8.599600e-01
9.144990e-01
6.498140e-01
7.247010e-01
7.934150e-01
8.559570e-01
9.123250e-01
6.259840e-01
7.039540e-01
7.745720e-01
8.378370e-01
8.937510e-01
5.929770e-01
6.727030e-01
7.435780e-01
8.056020e-01
8.587760e-01
5.507940e-01
6.309480e-01
7.004340e-01
7.592520e-01
8.074010e-01
9.144990e-01
9.699910e-01
1.016210e+00
1.053170e+00
1.080850e+00
9.123250e-01
9.736820e-01
1.025130e+00
1.066680e+00
1.098330e+00
8.937510e-01
9.593050e-01
1.014820e+00
1.060300e+00
1.095740e+00
8.587760e-01
9.268610e-01
9.852770e-01
1.034020e+00
1.073100e+00
8.074010e-01
8.763500e-01
9.365000e-01
9.878500e-01
1.030400e+00
1.080850e+00
1.072400e+00
1.054720e+00
1.027820e+00
9.916930e-01
1.098330e+00
1.090650e+00
1.075320e+00
1.052330e+00
1.021690e+00
1.095740e+00
1.088870e+00
1.076150e+00
1.057570e+00
1.033130e+00
1.073100e+00
1.067070e+00
1.057210e+00
1.043520e+00
1.025990e+00
1.030400e+00
1.025240e+00
1.018500e+00
1.010190e+00
1.000290e+00
9.916930e-01
9.142320e-01
8.178450e-01
7.025340e-01
5.682970e-01
1.021690e+00
9.571080e-01
8.733920e-01
7.705440e-01
6.485650e-01
1.033130e+00
9.787530e-01
9.065960e-01
8.166560e-01
7.089330e-01
1.025990e+00
9.791650e-01
9.174580e-01
8.408700e-01
7.494000e-01
1.000290e+00
9.583460e-01
9.059780e-01
8.431850e-01
7.699680e-01
5.682970e-01
4.692570e-01
3.845870e-01
3.142890e-01
2.583620e-01
6.485650e-01
5.456340e-01
4.552700e-01
3.774740e-01
3.122460e-01
7.089330e-01
6.073180e-01
5.153700e-01
4.330880e-01
3.604730e-01
7.494000e-01
6.543100e-01
5.648870e-01
4.811310e-01
4.030420e-01
7.699680e-01
6.866090e-01
6.038200e-01
5.216020e-01
4.399540e-01
2.583620e-01
2.105330e-01
1.788010e-01
1.631660e-01
1.636280e-01
3.122460e-01
2.592220e-01
2.214200e-01
1.988390e-01
1.914800e-01
3.604730e-01
3.038660e-01
2.612330e-01
2.325730e-01
2.178880e-01
4.030420e-01
3.444640e-01
2.982390e-01
2.643680e-01
2.428510e-01
4.399540e-01
3.810170e-01
3.324400e-01
2.942240e-01
2.663690e-01
1.636280e-01
1.657800e-01
1.657840e-01
1.636400e-01
1.593470e-01
1.914800e-01
1.888840e-01
1.849860e-01
1.797880e-01
1.732900e-01
2.178880e-01
2.101670e-01
2.020960e-01
1.936750e-01
1.849050e-01
2.428510e-01
2.296290e-01
2.171120e-01
2.052990e-01
1.941910e-01
2.663690e-01
2.472710e-01
2.300360e-01
2.146620e-01
2.011500e-01
1.593470e-01
1.543640e-01
1.490090e-01
1.432820e-01
1.371840e-01
1.732900e-01
1.663620e-01
1.593580e-01
1.522800e-01
1.451280e-01
1.849050e-01
1.761890e-01
1.676880e-01
1.594010e-01
1.513280e-01
1.941910e-01
1.838470e-01
1.739970e-01
1.646430e-01
1.557850e-01
2.011500e-01
1.893340e-01
1.782870e-01
1.680080e-01
1.584980e-01
1.371840e-01
1.320410e-01
1.269340e-01
1.218650e-01
1.168330e-01
1.451280e-01
1.392420e-01
1.336050e-01
1.282170e-01
1.230770e-01
1.513280e-01
1.447950e-01
1.387090e-01
1.330720e-01
1.278820e-01
1.557850e-01
1.486990e-01
1.422470e-01
1.364300e-01
1.312470e-01
1.584980e-01
1.509540e-01
1.442180e-01
1.382910e-01
1.331730e-01
8.939170e-02
9.296280e-02
9.622400e-02
9.917530e-02
1.018170e-01
8.740010e-02
9.071550e-02
9.371400e-02
9.639560e-02
9.876040e-02
8.530680e-02
8.836430e-02
9.111080e-02
9.354620e-02
9.567060e-02
8.311190e-02
8.590940e-02
8.841440e-02
9.062700e-02
9.254720e-02
8.081530e-02
8.335060e-02
8.562490e-02
8.763820e-02
8.939040e-02
1.018170e-01
1.042920e-01
1.065670e-01
1.086410e-01
1.105150e-01
9.876040e-02
1.009240e-01