<?xml version="1.0"?>
<VTKFile type="UnstructuredGrid" version="0.1" byte_order="LittleEndian" compressor="vtkZLibDataCompressor">
<UnstructuredGrid>
<Piece NumberOfPoints="10000" NumberOfCells="6400">
<Points>
<DataArray type="Float32" NumberOfComponents="3" format="ascii">
-3.360000e+00 0.000000e+00 0.000000e+00
-3.276000e+00 0.000000e+00 0.000000e+00
-3.192000e+00 0.000000e+00 0.000000e+00
-3.108000e+00 0.000000e+00 0.000000e+00
-3.024000e+00 0.000000e+00 0.000000e+00
-3.360000e+00 6.412500e-02 0.000000e+00
-3.276000e+00 6.412500e-02 0.000000e+00
-3.192000e+00 6.412500e-02 0.000000e+00
-3.108000e+00 6.412500e-02 0.000000e+00
-3.024000e+00 6.412500e-02 0.000000e+00
-3.360000e+00 1.282500e-01 0.000000e+00
-3.276000e+00 1.282500e-01 0.000000e+00
-3.192000e+00 1.282500e-01 0.000000e+00
-3.108000e+00 1.282500e-01 0.000000e+00
-3.024000e+00 1.282500e-01 0.000000e+00
-3.360000e+00 1.923750e-01 0.000000e+00
-3.276000e+00 1.923750e-01 0.000000e+00
-3.192000e+00 1.923750e-01 0.000000e+00
-3.108000e+00 1.923750e-01 0.000000e+00
-3.024000e+00 1.923750e-01 0.000000e+00
-3.360000e+00 2.565000e-01 0.000000e+00
-3.276000e+00 2.565000e-01 0.000000e+00
-3.192000e+00 2.565000e-01 0.000000e+00
-3.108000e+00 2.565000e-01 0.000000e+00
-3.024000e+00 2.565000e-01 0.000000e+00
-3.024000e+00 0.000000e+00 0.000000e+00
-2.940000e+00 0.000000e+00 0.000000e+00
-2.856000e+00 0.000000e+00 0.000000e+00
-2.772000e+00 0.000000e+00 0.000000e+00
-2.688000e+00 0.000000e+00 0.000000e+00
-3.024000e+00 6.412500e-02 0.000000e+00
-2.940000e+00 6.412500e-02 0.000000e+00
-2.856000e+00 6.412500e-02 0.000000e+00
-2.772000e+00 6.412500e-02 0.000000e+00
-2.688000e+00 6.412500e-02 0.000000e+00
-3.024000e+00 1.282500e-01 0.000000e+00
-2.940000e+00 1.282500e-01 0.000000e+00
-2.856000e+00 1.282500e-01 0.000000e+00
-2.772000e+00 1.282500e-01 0.000000e+00
-2.688000e+00 1.282500e-01 0.000000e+00
-3.024000e+00 1.923750e-01 0.000000e+00
-2.940000e+00 1.923750e-01 0.000000e+00
-2.856000e+00 1.923750e-01 0.000000e+00
-2.772000e+00 1.923750e-01 0.000000e+00
-2.688000e+00 1.923750e-01 0.000000e+00
-3.024000e+00 2.565000e-01 0.000000e+00
-2.940000e+00 2.565000e-01 0.000000e+00
-2.856000e+00 2.565000e-01 0.000000e+00
-2.772000e+00 2.565000e-01 0.000000e+00
-2.688000e+00 2.565000e-01 0.000000e+00
-2.688000e+00 0.000000e+00 0.000000e+00
-2.604000e+00 0.000000e+00 0.000000e+00
-2.520000e+00 0.000000e+00 0.000000e+00
-2.436000e+00 0.000000e+00 0.000000e+00
-2.352000e+00 0.000000e+00 0.000000e+00
-2.688000e+00 6.412500e-02 0.000000e+00
-2.604000e+00 6.412500e-02 0.000000e+00
-2.520000e+00 6.412500e-02 0.000000e+00
-2.436000e+00 6.412500e-02 0.000000e+00
-2.352000e+00 6.412500e-02 0.000000e+00
-2.688000e+00 1.282500e-01 0.000000e+00
-2.604000e+00 1.282500e-01 0.000000e+00
-2.520000e+00 1.282500e-01 0.000000e+00
-2.436000e+00 1.282500e-01 0.000000e+00
-2.352000e+00 1.282500e-01 0.000000e+00
-2.688000e+00 1.923750e-01 0.000000e+00
-2.604000e+00 1.923750e-01 0.000000e+00
-2.520000e+00 1.923750e-01 0.000000e+00
-2.436000e+00 1.923750e-01 0.000000e+00
-2.352000e+00 1.923750e-01 0.000000e+00
-2.688000e+00 2.565000e-01 0.000000e+00
-2.604000e+00 2.565000e-01 0.000000e+00
-2.520000e+00 2.565000e-01 0.000000e+00
-2.436000e+00 2.565000e-01 0.000000e+00
-2.352000e+00 2.565000e-01 0.000000e+00
-2.352000e+00 0.000000e+00 0.000000e+00
-2.268000e+00 0.000000e+00 0.000000e+00
-2.184000e+00 0.000000e+00 0.000000e+00
-2.100000e+00 0.000000e+00 0.000000e+00
-2.016000e+00 0.000000e+00 0.000000e+00
-2.352000e+00 6.412500e-02 0.000000e+00
-2.268000e+00 6.412500e-02 0.000000e+00
-2.184000e+00 6.412500e-02 0.000000e+00
-2.100000e+00 6.412500e-02 0.000000e+00
-2.016000e+00 6.412500e-02 0.000000e+00
-2.352000e+00 1.282500e-01 0.000000e+00
-2.268000e+00 1.282500e-01 0.000000e+00
-2.184000e+00 1.282500e-01 0.000000e+00
-2.100000e+00 1.282500e-01 0.000000e+00
-2.016000e+00 1.282500e-01 0.000000e+00
-2.352000e+00 1.923750e-01 0.000000e+00
-2.268000e+00 1.923750e-01 0.000000e+00
-2.184000e+00 1.923750e-01 0.000000e+00
-2.100000e+00 1.923750e-01 0.000000e+00
-2.016000e+00 1.923750e-01 0.000000e+00
-2.352000e+00 2.565000e-01 0.000000e+00
-2.268000e+00 2.565000e-01 0.000000e+00
-2.184000e+00 2.565000e-01 0.000000e+00
-2.100000e+00 2.565000e-01 0.000000e+00
-2.016000e+00 2.565000e-01 0.000000e+00
-2.016000e+00 0.000000e+00 0.000000e+00
-1.932000e+00 0.000000e+00 0.000000e+00
-1.848000e+00 0.000000e+00 0.000000e+00
-1.764000e+00 0.000000e+00 0.000000e+00
-1.680000e+00 0.000000e+00 0.000000e+00
-2.016000e+00 6.412500e-02 0.000000e+00
-1.932000e+00 6.412500e-02 0.000000e+00
-1.848000e+00 6.412500e-02 0.000000e+00
-1.764000e+00 6.412500e-02 0.000000e+00
-1.680000e+00 6.412500e-02 0.000000e+00
-2.016000e+00 1.282500e-01 0.000000e+00
-1.932000e+00 1.282500e-01 0.000000e+00
-1.848000e+00 1.282500e-01 0.000000e+00
-1.764000e+00 1.282500e-01 0.000000e+00
-1.680000e+00 1.282500e-01 0.000000e+00
-2.016000e+00 1.923750e-01 0.000000e+00
-1.932000e+00 1.923750e-01 0.000000e+00
-1.848000e+00 1.923750e-01 0.000000e+00
-1.764000e+00 1.923750e-01 0.000000e+00
-1.680000e+00 1.923750e-01 0.000000e+00
-2.016000e+00 2.565000e-01 0.000000e+00
-1.932000e+00 2.565000e-01 0.000000e+00
-1.848000e+00 2.565000e-01 0.000000e+00
-1.764000e+00 2.565000e-01 0.000000e+00
-1.680000e+00 2.565000e-01 0.000000e+00
-1.680000e+00 0.000000e+00 0.000000e+00
-1.596000e+00 0.000000e+00 0.000000e+00
-1.512000e+00 0.000000e+00 0.000000e+00
-1.428000e+00 0.000000e+00 0.000000e+00
-1.344000e+00 0.000000e+00 0.000000e+00
-1.680000e+00 6.412500e-02 0.000000e+00
-1.596000e+00 6.412500e-02 0.000000e+00
-1.512000e+00 6.412500e-02 0.000000e+00
-1.428000e+00 6.412500e-02 0.000000e+00
-1.344000e+00 6.412500e-02 0.000000e+00
-1.680000e+00 1.282500e-01 0.000000e+00
-1.596000e+00 1.282500e-01 0.000000e+00
-1.512000e+00 1.282500e-01 0.000000e+00
-1.428000e+00 1.282500e-01 0.000000e+00
-1.344000e+00 1.282500e-01 0.000000e+00
-1.680000e+00 1.923750e-01 0.000000e+00
-1.596000e+00 1.923750e-01 0.000000e+00
-1.512000e+00 1.923750e-01 0.000000e+00
-1.428000e+00 1.923750e-01 0.000000e+00
-1.344000e+00 1.923750e-01 0.000000e+00
-1.680000e+00 2.565000e-01 0.000000e+00
-1.596000e+00 2.565000e-01 0.000000e+00
-1.512000e+00 2.565000e-01 0.000000e+00
-1.428000e+00 2.565000e-01 0.000000e+00
-1.344000e+00 2.565000e-01 0.000000e+00
-1.344000e+00 0.000000e+00 0.000000e+00
-1.260000e+00 0.000000e+00 0.000000e+00
-1.176000e+00 0.000000e+00 0.000000e+00
-1.092000e+00 0.000000e+00 0.000000e+00
-1.008000e+00 0.000000e+00 0.000000e+00
-1.344000e+00 6.412500e-02 0.000000e+00
-1.260000e+00 6.412500e-02 0.000000e+00
-1.176000e+00 6.412500e-02 0.000000e+00
-1.092000e+00 6.412500e-02 0.000000e+00
-1.008000e+00 6.412500e-02 0.000000e+00
-1.344000e+00 1.282500e-01 0.000000e+00
-1.260000e+00 1.282500e-01 0.000000e+00
-1.176000e+00 1.282500e-01 0.000000e+00
-1.092000e+00 1.282500e-01 0.000000e+00
-1.008000e+00 1.282500e-01 0.000000e+00
-1.344000e+00 1.923750e-01 0.000000e+00
-1.260000e+00 1.923750e-01 0.000000e+00
-1.176000e+00 1.923750e-01 0.000000e+00
-1.092000e+00 1.923750e-01 0.000000e+00
-1.008000e+00 1.923750e-01 0.000000e+00
-1.344000e+00 2.565000e-01 0.000000e+00
-1.260000e+00 2.565000e-01 0.000000e+00
-1.176000e+00 2.565000e-01 0.000000e+00
-1.092000e+00 2.565000e-01 0.000000e+00
-1.008000e+00 2.565000e-01 0.000000e+00
-1.008000e+00 0.000000e+00 0.000000e+00
-9.240000e-01 0.000000e+00 0.000000e+00
-8.400000e-01 0.000000e+00 0.000000e+00
-7.560000e-01 0.000000e+00 0.000000e+00
-6.720000e-01 0.000000e+00 0.000000e+00
-1.008000e+00 6.412500e-02 0.000000e+00
-9.240000e-01 6.412500e-02 0.000000e+00
-8.400000e-01 6.412500e-02 0.000000e+00
-7.560000e-01 6.412500e-02 0.000000e+00
-6.720000e-01 6.412500e-02 0.000000e+00
-1.008000e+00 1.282500e-01 0.000000e+00
-9.240000e-01 1.282500e-01 0.000000e+00
-8.400000e-01 1.282500e-01 0.000000e+00
-7.560000e-01 1.282500e-01 0.000000e+00
-6.720000e-01 1.282500e-01 0.000000e+00
-1.008000e+00 1.923750e-01 0.000000e+00
-9.240000e-01 1.923750e-01 0.000000e+00
-8.400000e-01 1.923750e-01 0.000000e+00
-7.560000e-01 1.923750e-01 0.000000e+00
-6.720000e-01 1.923750e-01 0.000000e+00
-1.008000e+00 2.565000e-01 0.000000e+00
-9.240000e-01 2.565000e-01 0.000000e+00
-8.400000e-01 2.565000e-01 0.000000e+00
-7.560000e-01 2.565000e-01 0.000000e+00
-6.720000e-01 2.565000e-01 0.000000e+00
-6.720000e-01 0.000000e+00 0.000000e+00
-5.880000e-01 0.000000e+00 0.000000e+00
-5.040000e-01 0.000000e+00 0.000000e+00
-4.200000e-01 0.000000e+00 0.000000e+00
-3.360000e-01 0.000000e+00 0.000000e+00
-6.720000e-01 6.412500e-02 0.000000e+00
-5.880000e-01 6.412500e-02 0.000000e+00
-5.040000e-01 6.412500e-02 0.000000e+00
-4.200000e-01 6.412500e-02 0.000000e+00
-3.360000e-01 6.412500e-02 0.000000e+00
-6.720000e-01 1.282500e-01 0.000000e+00
-5.880000e-01 1.282500e-01 0.000000e+00
-5.040000e-01 1.282500e-01 0.000000e+00
-4.200000e-01 1.282500e-01 0.000000e+00
-3.360000e-01 1.282500e-01 0.000000e+00
-6.720000e-01 1.923750e-01 0.000000e+00
-5.880000e-01 1.923750e-01 0.000000e+00
-5.040000e-01 1.923750e-01 0.000000e+00
-4.200000e-01 1.923750e-01 0.000000e+00
-3.360000e-01 1.923750e-01 0.000000e+00
-6.720000e-01 2.565000e-01 0.000000e+00
-5.880000e-01 2.565000e-01 0.000000e+00
-5.040000e-01 2.565000e-01 0.000000e+00
-4.200000e-01 2.565000e-01 0.000000e+00
-3.360000e-01 2.565000e-01 0.000000e+00
-3.360000e-01 0.000000e+00 0.000000e+00
-2.520000e-01 0.000000e+00 0.000000e+00
-1.680000e-01 0.000000e+00 0.000000e+00
-8.400000e-02 0.000000e+00 0.000000e+00
-4.440890e-16 0.000000e+00 0.000000e+00
-3.360000e-01 6.412500e-02 0.000000e+00
-2.520000e-01 6.412500e-02 0.000000e+00
-1.680000e-01 6.412500e-02 0.000000e+00
-8.400000e-02 6.412500e-02 0.000000e+00
-4.440890e-16 6.412500e-02 0.000000e+00
-3.360000e-01 1.282500e-01 0.000000e+00
-2.520000e-01 1.282500e-01 0.000000e+00
-1.680000e-01 1.282500e-01 0.000000e+00
-8.400000e-02 1.282500e-01 0.000000e+00
-4.440890e-16 1.282500e-01 0.000000e+00
-3.360000e-01 1.923750e-01 0.000000e+00
-2.520000e-01 1.923750e-01 0.000000e+00
-1.680000e-01 1.923750e-01 0.000000e+00
[...]
<PointData>
<DataArray type="Float32" Name="V1" format="ascii">
0.000000e+00
0.000000e+00
0.000000e+00
0.000000e+00
0.000000e+00
6.347820e-02
5.968840e-02
5.542120e-02
5.067660e-02
4.545460e-02
1.013490e-01
9.781910e-02
9.302940e-02
8.697930e-02
7.966900e-02
1.136110e-01
1.143920e-01
1.128240e-01
1.089080e-01
1.026430e-01
1.002660e-01
1.094070e-01
1.148060e-01
1.164630e-01
1.143770e-01
0.000000e+00
0.000000e+00
0.000000e+00
0.000000e+00
0.000000e+00
4.545460e-02
3.971380e-02
3.532550e-02
3.228980e-02
3.060670e-02
7.966900e-02
7.132200e-02
6.476650e-02
6.000230e-02
5.702970e-02
1.026430e-01
9.482460e-02
8.832280e-02
8.313760e-02
7.926900e-02
1.143770e-01
1.102220e-01
1.059940e-01
1.016960e-01
9.732470e-02
0.000000e+00
0.000000e+00
0.000000e+00
0.000000e+00
0.000000e+00
3.060670e-02
2.913370e-02
2.795790e-02
2.707920e-02
2.649760e-02
5.702970e-02
5.451730e-02
5.255680e-02
5.114820e-02
5.029150e-02
7.926900e-02
7.615060e-02
7.379660e-02
7.220700e-02
7.138170e-02
9.732470e-02
9.403380e-02
9.167740e-02
9.025550e-02
8.976810e-02
0.000000e+00
0.000000e+00
0.000000e+00
0.000000e+00
0.000000e+00
2.649760e-02
2.606500e-02
2.593940e-02
2.612080e-02
2.660920e-02
5.029150e-02
4.971740e-02
4.965240e-02
5.009640e-02
5.104950e-02
7.138170e-02
7.095730e-02
7.113910e-02
7.192690e-02
7.332080e-02
8.976810e-02
8.978480e-02
9.039950e-02
9.161230e-02
9.342320e-02
0.000000e+00
0.000000e+00
0.000000e+00
0.000000e+00
0.000000e+00
2.660920e-02
2.724240e-02
2.807290e-02
2.910070e-02
3.032580e-02
5.104950e-02
5.227760e-02
5.386780e-02
5.582030e-02
5.813500e-02
7.332080e-02
7.510550e-02
7.738490e-02
8.015890e-02
8.342760e-02
9.342320e-02
9.572630e-02
9.862410e-02
1.021160e-01
1.062040e-01
0.000000e+00
0.000000e+00
0.000000e+00
0.000000e+00
0.000000e+00
3.032580e-02
3.174330e-02
3.347710e-02
3.552710e-02
3.789330e-02
5.813500e-02
6.079250e-02
6.399610e-02
6.774560e-02
7.204120e-02
8.342760e-02
8.714770e-02
9.155710e-02
9.665570e-02
1.024440e-01
1.062040e-01
1.108090e-01
1.161600e-01
1.222570e-01
1.291010e-01
0.000000e+00
0.000000e+00
0.000000e+00
0.000000e+00
0.000000e+00
3.789330e-02
4.051120e-02
4.362970e-02
4.724870e-02
5.136830e-02
7.204120e-02
7.677720e-02
8.236290e-02
8.879840e-02
9.608340e-02
1.024440e-01
1.087980e-01
1.162000e-01
1.246490e-01
1.341450e-01
1.291010e-01
1.365730e-01
1.451400e-01
1.548000e-01
1.655540e-01
0.000000e+00
0.000000e+00
0.000000e+00
0.000000e+00
0.000000e+00
5.136830e-02
5.575750e-02
6.101000e-02
6.712590e-02
7.410510e-02
9.608340e-02
1.038280e-01
1.130040e-01
1.236090e-01
1.356450e-01
1.341450e-01
1.442120e-01
1.559810e-01
1.694500e-01
1.846200e-01
1.655540e-01
1.769100e-01
1.899410e-01
2.046480e-01
2.210290e-01
0.000000e+00
0.000000e+00
0.000000e+00
0.000000e+00
0.000000e+00
7.410510e-02
8.122520e-02
8.971290e-02
9.956820e-02
1.107910e-01
1.356450e-01
1.479290e-01
1.624320e-01
1.791560e-01
1.980980e-01
1.846200e-01
2.001110e-01
2.181580e-01
2.387620e-01
2.619220e-01
2.210290e-01
2.377710e-01
2.568910e-01
2.783870e-01
3.022610e-01
0.000000e+00
0.000000e+00
0.000000e+00
0.000000e+00
0.000000e+00
1.107910e-01
1.222280e-01
1.350770e-01
1.493390e-01
1.650130e-01
1.980980e-01
2.174990e-01
2.391570e-01
2.630740e-01
2.892500e-01
2.619220e-01
2.858130e-01
3.122410e-01
3.412080e-01
3.727120e-01
3.022610e-01
3.271700e-01
3.543290e-01
3.837380e-01
4.153970e-01
0.000000e+00
0.000000e+00
0.000000e+00
0.000000e+00
0.000000e+00
1.650130e-01
1.826310e-01
1.998370e-01
2.166320e-01
2.330170e-01
2.892500e-01
3.188480e-01
3.479190e-01
3.764650e-01
4.044850e-01
3.727120e-01
4.086510e-01
4.442470e-01
4.794970e-01
5.144040e-01
4.153970e-01
4.520410e-01
4.888190e-01
5.257300e-01
5.627740e-01
0.000000e+00
0.000000e+00
0.000000e+00
0.000000e+00
0.000000e+00
2.330170e-01
2.533010e-01
2.694320e-01
2.814100e-01
2.892350e-01
4.044850e-01
4.392010e-01
4.677790e-01
4.902190e-01
5.065210e-01
5.144040e-01
5.577000e-01
5.950410e-01
6.264270e-01
6.518590e-01
5.627740e-01
6.087970e-01
6.512170e-01
6.900340e-01
7.252470e-01
0.000000e+00
0.000000e+00
0.000000e+00
0.000000e+00
0.000000e+00
2.892350e-01
2.935690e-01
2.919360e-01
2.843360e-01
2.707710e-01
5.065210e-01
5.179420e-01
5.199190e-01
5.124540e-01
4.955450e-01
6.518590e-01
6.731200e-01
6.839510e-01
6.843530e-01
6.743250e-01
7.252470e-01
7.591020e-01
7.840310e-01
8.000330e-01
8.071080e-01
0.000000e+00
0.000000e+00
0.000000e+00
0.000000e+00
0.000000e+00
2.707710e-01
2.416920e-01
2.121310e-01
1.820900e-01
1.515670e-01
4.955450e-01
4.529910e-01
4.072650e-01
3.583660e-01
3.062950e-01
6.743250e-01
6.339000e-01
5.854010e-01
5.288300e-01
4.641850e-01
8.071080e-01
7.844160e-01
7.465400e-01
6.934800e-01
6.252360e-01
0.000000e+00
0.000000e+00
0.000000e+00
0.000000e+00
0.000000e+00
1.515670e-01
1.221330e-01
9.583250e-02
7.266490e-02
5.263030e-02
3.062950e-01
2.516670e-01
2.014270e-01
1.555740e-01
1.141080e-01
4.641850e-01
3.886020e-01
3.167830e-01
2.487270e-01
1.844340e-01
6.252360e-01
5.329390e-01
4.419010e-01
3.521240e-01
2.636070e-01
0.000000e+00
0.000000e+00
0.000000e+00
0.000000e+00
0.000000e+00
5.263030e-02
3.954380e-02
2.661060e-02
1.383070e-02
1.204110e-03
1.141080e-01
8.653320e-02
6.046480e-02
3.590280e-02
1.284750e-02
1.844340e-01
1.409680e-01
1.015620e-01
6.621640e-02
3.493010e-02
2.636070e-01
2.028490e-01
1.499040e-01
1.047710e-01
6.745190e-02
0.000000e+00
0.000000e+00
0.000000e+00
0.000000e+00
0.000000e+00
1.204110e-03
-6.897640e-03
-1.162130e-02
-1.296680e-02
-1.093430e-02
1.284750e-02
-2.103080e-03
-1.086140e-02
-1.342740e-02
-9.801210e-03
3.493010e-02
1.438370e-02
2.279750e-03
-1.381770e-03
3.399140e-03
6.745190e-02
4.256270e-02
2.780210e-02
2.317010e-02
2.866680e-02
0.000000e+00
0.000000e+00
0.000000e+00
0.000000e+00
0.000000e+00
-1.093430e-02
-1.013870e-02
-8.375610e-03
-5.644890e-03
-1.946560e-03
-9.801210e-03
-8.165600e-03
-5.075820e-03
-5.318440e-04
5.466310e-03
3.399140e-03
5.919390e-03
9.899390e-03
1.533910e-02
2.223860e-02
2.866680e-02
3.211630e-02
3.655000e-02
4.196800e-02
4.837040e-02
0.000000e+00
0.000000e+00
0.000000e+00
0.000000e+00
0.000000e+00
-1.946560e-03
4.521910e-04
2.369800e-03
3.806270e-03
4.761600e-03
5.466310e-03
9.301010e-03
1.227920e-02
1.440090e-02
1.566610e-02
2.223860e-02
2.654640e-02
2.972820e-02
3.178380e-02
3.271340e-02
4.837040e-02
5.218850e-02
5.471680e-02
5.595510e-02
5.590360e-02
0.000000e+00
0.000000e+00
0.000000e+00
0.000000e+00
0.000000e+00
4.761600e-03
5.918190e-03
5.700580e-03
4.108770e-03
1.142760e-03
1.566610e-02
1.706600e-02
1.650670e-02
1.398810e-02
9.510280e-03
3.271340e-02
3.344350e-02
3.241840e-02
2.963810e-02
2.510250e-02
5.590360e-02
5.505060e-02
5.343560e-02
5.105860e-02
4.791960e-02
1.002660e-01
1.094070e-01
1.148060e-01
1.164630e-01
1.143770e-01
9.945850e-02
1.078060e-01
1.137690e-01
1.173490e-01
1.185440e-01
9.848610e-02
1.058600e-01
1.119070e-01
1.166270e-01
1.200210e-01
9.734850e-02
1.035700e-01
1.092200e-01
1.143000e-01
1.188080e-01
9.604590e-02
1.009360e-01
1.057090e-01
1.103650e-01
1.149050e-01
1.143770e-01
1.102220e-01
1.059940e-01
1.016960e-01
9.732470e-02
1.185440e-01
1.172710e-01
1.153200e-01
1.126910e-01
1.093830e-01
1.200210e-01
1.209780e-01
1.208760e-01
1.197150e-01
1.174960e-01
1.188080e-01
1.213410e-01
1.226610e-01
1.227680e-01
1.216630e-01
1.149050e-01
1.183600e-01
1.206760e-01
1.218510e-01
1.218850e-01
9.732470e-02
9.403380e-02
9.167740e-02
9.025550e-02
8.976810e-02
1.093830e-01
1.066050e-01
1.046620e-01
1.035530e-01
1.032790e-01
1.174960e-01
1.153710e-01
1.139390e-01
1.132010e-01
1.131550e-01
1.216630e-01
1.203310e-01
1.195090e-01
1.191970e-01
1.193960e-01
1.218850e-01
1.214850e-01
1.213710e-01
1.215430e-01
1.220020e-01
8.976810e-02
8.978480e-02
9.039950e-02
9.161230e-02
9.342320e-02
1.032790e-01
1.035880e-01
1.045000e-01
1.060140e-01
1.081310e-01
1.131550e-01
1.137200e-01
1.148710e-01
1.166080e-01
1.189300e-01
1.193960e-01
1.201810e-01
1.215130e-01
1.233930e-01
1.258210e-01
1.220020e-01
1.229690e-01
1.244250e-01
1.263700e-01
1.288040e-01
9.342320e-02
9.572630e-02
9.862410e-02
1.021160e-01
1.062040e-01
1.081310e-01
1.107380e-01
1.139660e-01
1.178150e-01
1.222850e-01
1.189300e-01
1.217300e-01
1.251530e-01
1.291970e-01
1.338640e-01
1.258210e-01
1.287030e-01
1.321830e-01
1.362630e-01
1.409420e-01
1.288040e-01
1.316550e-01
1.350570e-01
1.390120e-01
1.435180e-01
1.062040e-01
1.108090e-01
1.161600e-01
1.222570e-01
1.291010e-01
1.222850e-01
1.272830e-01
1.330290e-01
1.395230e-01
1.467650e-01
1.338640e-01
1.390510e-01
1.449690e-01
1.516180e-01
1.589980e-01
1.409420e-01
1.461130e-01
1.519790e-01
1.585410e-01
1.657990e-01
1.435180e-01
1.484680e-01
1.540600e-01
1.602930e-01
1.671690e-01
1.291010e-01
1.365730e-01
1.451400e-01
1.548000e-01
1.655540e-01
1.467650e-01
1.545880e-01
1.634810e-01
1.734420e-01
1.844730e-01
1.589980e-01
1.669050e-01
1.758400e-01
1.858030e-01
1.967950e-01
1.657990e-01
1.735230e-01
1.822170e-01
1.918830e-01
2.025190e-01
1.671690e-01
1.744430e-01
1.826130e-01
1.916810e-01
2.016450e-01
1.655540e-01
1.769100e-01
1.899410e-01
2.046480e-01
2.210290e-01
1.844730e-01
1.959770e-01
2.091150e-01
2.238870e-01
2.402930e-01
1.967950e-01
2.081430e-01
2.210750e-01
2.355900e-01
2.516900e-01
2.025190e-01
2.134070e-01
2.258200e-01
2.397570e-01
2.552190e-01
2.016450e-01
2.117700e-01
2.233510e-01
2.363880e-01
2.508810e-01
2.210290e-01
2.377710e-01
2.568910e-01
2.783870e-01
3.022610e-01
2.402930e-01
2.567940e-01
2.756970e-01
2.970000e-01
3.207040e-01
2.516900e-01
2.676380e-01
2.860220e-01
3.068420e-01
3.300980e-01
2.552190e-01
2.703020e-01
2.878670e-01
3.079140e-01
3.304440e-01
2.508810e-01
2.647860e-01
2.812310e-01
3.002160e-01
3.217410e-01
3.022610e-01
3.271700e-01
3.543290e-01
3.837380e-01
4.153970e-01
3.207040e-01
3.450450e-01
3.718990e-01
4.012660e-01
4.331450e-01
3.300980e-01
3.535570e-01
3.798070e-01
4.088480e-01
4.406820e-01
3.304440e-01
3.527050e-01
3.780520e-01
4.064860e-01
4.380070e-01
3.217410e-01
3.424900e-01
3.666360e-01
3.941800e-01
4.251200e-01
4.153970e-01
4.520410e-01
4.888190e-01
5.257300e-01
5.627740e-01
4.331450e-01
4.700140e-01
5.074670e-01
5.455060e-01
5.841290e-01
4.406820e-01
4.774210e-01
5.151640e-01
5.539120e-01
5.936640e-01
4.380070e-01
4.742630e-01
5.119100e-01
5.509490e-01
5.913790e-01
4.251200e-01
4.605400e-01
4.977060e-01
5.366170e-01
5.772730e-01
5.627740e-01
6.087970e-01
6.512170e-01
6.900340e-01
7.252470e-01
5.841290e-01
6.335260e-01
6.796580e-01
7.225230e-01
7.621230e-01
5.936640e-01
6.461320e-01
6.955720e-01
7.419840e-01
7.853690e-01
5.913790e-01
6.466130e-01
6.989590e-01
7.484170e-01
7.949850e-01
5.772730e-01
6.349710e-01
6.898200e-01
7.418210e-01
7.909730e-01
7.252470e-01
7.591020e-01
7.840310e-01
8.000330e-01
8.071080e-01
7.621230e-01
8.038710e-01
8.373870e-01
8.626690e-01
8.797170e-01
7.853690e-01
8.342080e-01
8.751810e-01
9.082880e-01
9.335300e-01
7.949850e-01
8.501110e-01
8.974130e-01
9.368920e-01
9.685470e-01
7.909730e-01
8.515820e-01
9.040840e-01
9.484790e-01
9.847680e-01
8.071080e-01
7.844160e-01
7.465400e-01
6.934800e-01
6.252360e-01
8.797170e-01
8.710270e-01
8.479110e-01
8.103700e-01
7.584030e-01
9.335300e-01
9.352400e-01
9.238080e-01
8.992340e-01
8.615190e-01
9.685470e-01
9.770540e-01
9.742290e-01
9.600730e-01
9.345840e-01
9.847680e-01
9.964710e-01
9.991770e-01
9.928850e-01
9.775970e-01
6.252360e-01
5.329390e-01
4.419010e-01
3.521240e-01
2.636070e-01
7.584030e-01
6.684430e-01
5.722740e-01
4.698950e-01
3.613080e-01
8.615190e-01
7.791470e-01
6.844640e-01
5.774710e-01
4.581680e-01
9.345840e-01
8.650500e-01
7.784730e-01
6.748510e-01
5.541860e-01
9.775970e-01
9.261520e-01
8.542990e-01
7.620360e-01
6.493630e-01
2.636070e-01
2.028490e-01
1.499040e-01
1.047710e-01
6.745190e-02
3.613080e-01
2.830470e-01
2.152040e-01
1.577780e-01
1.107690e-01
4.581680e-01
3.663010e-01
2.857960e-01
2.166520e-01
1.588700e-01
5.541860e-01
4.526110e-01
3.616800e-01
2.813950e-01
2.117550e-01
6.493630e-01
5.419760e-01
4.428560e-01
3.520050e-01
2.694220e-01
6.745190e-02
4.256270e-02
2.780210e-02
2.317010e-02
2.866680e-02
1.107690e-01
7.845610e-02
5.833570e-02
5.040820e-02
5.467350e-02
1.588700e-01
1.184860e-01
9.212760e-02
7.979610e-02
8.149120e-02
2.117550e-01
1.626510e-01
1.291780e-01
1.113340e-01
1.091200e-01
2.694220e-01
2.109530e-01
1.694860e-01
1.450210e-01
1.375590e-01
2.866680e-02
3.211630e-02
3.655000e-02
4.196800e-02
4.837040e-02
5.467350e-02
5.769680e-02
6.166020e-02
6.656390e-02
7.240770e-02
8.149120e-02
8.296850e-02
8.560110e-02
8.938890e-02
9.433210e-02
1.091200e-01
1.079310e-01
1.083730e-01
1.104430e-01
1.141430e-01
1.375590e-01
1.325860e-01
1.299750e-01
1.297270e-01
1.318420e-01
4.837040e-02
5.218850e-02
5.471680e-02
5.595510e-02
5.590360e-02
7.240770e-02
7.540290e-02
7.700260e-02
7.720680e-02
7.601550e-02
9.433210e-02
9.633550e-02
9.689090e-02
9.599810e-02
9.365710e-02
1.141430e-01
1.149860e-01
1.143820e-01
1.123290e-01
1.088280e-01
1.318420e-01
1.313560e-01
1.294750e-01
1.261990e-01
1.215290e-01
5.590360e-02
5.505060e-02
5.343560e-02
5.105860e-02
4.791960e-02
7.601550e-02
7.448960e-02
7.227240e-02
6.936370e-02
6.576360e-02
9.365710e-02
9.141190e-02
8.857600e-02
8.514920e-02
8.113170e-02
1.088280e-01
1.058170e-01
1.023460e-01
9.841520e-02
9.402380e-02
1.215290e-01
1.177060e-01
1.135840e-01
1.091620e-01
1.044400e-01
9.604590e-02
1.009360e-01
1.057090e-01
1.103650e-01
1.149050e-01
9.458900e-02
9.895810e-02
1.032660e-01
1.075120e-01
1.116960e-01
9.299440e-02
9.698070e-02
1.008920e-01
1.047300e-01
1.084930e-01
9.126190e-02
9.500350e-02
9.858940e-02
1.020200e-01
1.052940e-01
8.939170e-02
9.302650e-02
9.635630e-02
9.938110e-02
1.021010e-01
1.149050e-01
1.183600e-01
1.206760e-01
1.218510e-01
1.218850e-01
1.116960e-01
1.151620e-01
1.177280e-01
1.193940e-01
1.201590e-01
1.084930e-01
1.118080e-01
1.144480e-01
1.164140e-01
1.177060e-01
1.052940e-01
1.082970e-01
1.108370e-01
1.129130e-01
1.145260e-01
1.021010e-01
1.046300e-01
1.068930e-01
1.088890e-01
1.106190e-01
1.218850e-01
1.214850e-01
1.213710e-01
1.215430e-01
1.220020e-01
1.201590e-01
1.204420e-01
1.208860e-01
1.214910e-01
1.222580e-01
1.177060e-01
1.185260e-01
1.194200e-01
1.203860e-01
1.214250e-01
1.145260e-01
1.157390e-01
1.169730e-01
1.182280e-01
1.195020e-01
1.106190e-01
1.120800e-01
1.135460e-01
1.150170e-01
1.164910e-01
1.220020e-01
1.229690e-01
1.244250e-01
1.263700e-01
1.288040e-01
1.222580e-01
1.234190e-01
1.250050e-01
1.270160e-01
1.294520e-01
1.214250e-01
1.227630e-01
1.244660e-01
1.265330e-01
1.289640e-01
1.195020e-01
1.210000e-01
1.228060e-01
1.249200e-01
1.273410e-01
1.164910e-01
1.181310e-01
1.200260e-01
1.221770e-01
1.245830e-01
1.288040e-01
1.316550e-01
1.350570e-01
1.390120e-01
1.435180e-01
1.294520e-01
1.322660e-01
1.355900e-01
1.394240e-01
1.437690e-01
1.289640e-01
1.317360e-01
1.349760e-01
1.386840e-01
1.428610e-01
1.273410e-01
1.300640e-01
1.332140e-01
1.367910e-01
1.407960e-01
1.245830e-01
1.272510e-01
1.303050e-01
1.337450e-01
1.375720e-01
1.435180e-01
1.484680e-01
1.540600e-01
1.602930e-01
1.671690e-01
1.437690e-01
1.485100e-01
1.538580e-01
1.598120e-01
1.663730e-01
1.428610e-01
1.473890e-01
1.524890e-01
1.581590e-01
1.644000e-01
1.407960e-01
1.451060e-01
1.499510e-01
1.553320e-01
1.612490e-01
1.375720e-01
1.416590e-01
1.462460e-01
1.513330e-01
1.569200e-01
1.671690e-01
1.744430e-01
1.826130e-01
1.916810e-01
2.016450e-01
1.663730e-01
1.732770e-01
1.810380e-01
1.896560e-01
1.991310e-01
1.644000e-01
1.709290e-01
1.782730e-01
1.864320e-01
1.954070e-01
1.612490e-01
1.673980e-01
1.743190e-01
1.820100e-01
1.904720e-01
1.569200e-01
1.626860e-01
1.691750e-01
1.763890e-01
1.843280e-01
2.016450e-01
2.117700e-01
2.233510e-01
2.363880e-01
2.508810e-01
1.991310e-01
2.086990e-01
2.196910e-01
2.321060e-01
2.459450e-01
1.954070e-01
2.044040e-01
2.147780e-01
2.265290e-01
2.396580e-01
1.904720e-01
1.988840e-01
2.086130e-01
2.196580e-01
2.320210e-01
1.843280e-01
1.921400e-01
2.011950e-01
2.114930e-01
2.230330e-01
2.508810e-01
2.647860e-01
2.812310e-01
3.002160e-01
3.217410e-01
2.459450e-01
2.589940e-01
2.746730e-01
2.929820e-01
3.139210e-01
2.396580e-01
2.518060e-01
2.666230e-01
2.841090e-01
3.042650e-01
2.320210e-01
2.432210e-01
2.570800e-01
2.735980e-01
2.927740e-01
2.230330e-01
2.332390e-01
2.460440e-01
2.614470e-01
2.794470e-01
3.217410e-01
3.424900e-01
3.666360e-01
3.941800e-01
4.251200e-01
3.139210e-01
3.333730e-01
3.565950e-01
3.835840e-01
4.143420e-01
3.042650e-01
3.221240e-01
3.441240e-01
3.702650e-01
4.005480e-01
2.927740e-01
3.087410e-01
3.292240e-01
3.542230e-01
3.837370e-01
2.794470e-01
2.932250e-01
3.118950e-01
3.354570e-01
3.639100e-01
4.251200e-01
4.605400e-01
4.977060e-01
5.366170e-01
5.772730e-01
4.143420e-01
4.488840e-01
4.855160e-01
5.242410e-01
5.650560e-01
4.005480e-01
4.334870e-01
4.688270e-01
5.065680e-01
5.467100e-01
3.837370e-01
4.143500e-01
4.476370e-01
4.835980e-01
5.222340e-01
3.639100e-01
3.914720e-01
4.219460e-01
4.553320e-01
4.916290e-01
5.772730e-01
6.349710e-01
6.898200e-01
7.418210e-01
7.909730e-01
5.650560e-01
6.255500e-01
6.827170e-01
7.365590e-01
7.870750e-01
5.467100e-01
6.089640e-01
6.670670e-01
7.210180e-01
7.708170e-01
5.222340e-01
5.852150e-01
6.428700e-01
6.951970e-01
7.421980e-01
4.916290e-01
5.543020e-01
6.101250e-01
6.590970e-01
7.012200e-01
7.909730e-01
8.515820e-01
9.040840e-01
9.484790e-01
9.847680e-01
7.870750e-01
8.536950e-01
9.114090e-01
9.602170e-01
1.000120e+00
7.708170e-01
8.416750e-01
9.031310e-01
9.551850e-01
9.978360e-01
7.421980e-01
8.155230e-01
8.792520e-01
9.333830e-01
9.779180e-01
7.012200e-01
7.752390e-01
8.397700e-01
8.948130e-01
9.403670e-01
9.847680e-01
9.964710e-01
9.991770e-01
9.928850e-01
9.775970e-01
1.000120e+00
1.014560e+00
1.020160e+00
1.016940e+00
1.004880e+00
9.978360e-01
1.014630e+00
1.023310e+00
1.023900e+00
1.016380e+00
9.779180e-01
9.966740e-01
1.008630e+00
1.013770e+00
1.012110e+00
9.403670e-01
9.607040e-01
9.760990e-01
9.865550e-01
9.920700e-01
9.775970e-01
9.261520e-01
8.542990e-01
7.620360e-01
6.493630e-01
1.004880e+00
9.596740e-01
8.970980e-01
8.171490e-01
7.198280e-01
1.016380e+00
9.755760e-01
9.210410e-01
8.527780e-01
7.707880e-01
1.012110e+00
9.738580e-01
9.261280e-01
8.689230e-01
8.022430e-01
9.920700e-01
9.545210e-01
9.123580e-01
8.655820e-01
8.141930e-01
6.493630e-01
5.419760e-01
4.428560e-01
3.520050e-01
2.694220e-01
7.198280e-01
6.135620e-01
5.121820e-01
4.156880e-01
3.240800e-01
7.707880e-01
6.695470e-01
5.694790e-01
4.705820e-01
3.728580e-01
8.022430e-01
7.099310e-01
6.147450e-01
5.166870e-01
4.157560e-01
8.141930e-01
7.347120e-01
6.479820e-01
5.540040e-01
4.527760e-01
2.694220e-01
2.109530e-01
1.694860e-01
1.450210e-01
1.375590e-01
3.240800e-01
2.607340e-01
2.135380e-01
1.824900e-01
1.675920e-01
3.728580e-01
3.066850e-01
2.553690e-01
2.189100e-01
1.973090e-01
4.157560e-01
3.488050e-01
2.949800e-01
2.542810e-01
2.267090e-01
4.527760e-01
3.870940e-01
3.323690e-01
2.886020e-01
2.557920e-01
1.375590e-01
1.325860e-01
1.299750e-01
1.297270e-01
1.318420e-01
1.675920e-01
1.571010e-01
1.501760e-01
1.468170e-01
1.470250e-01
1.973090e-01
1.811900e-01
1.697160e-01
1.628850e-01
1.607000e-01
2.267090e-01
2.048530e-01
1.885940e-01
1.779320e-01
1.728650e-01
2.557920e-01
2.280910e-01
2.068120e-01
1.919560e-01
1.835220e-01
1.318420e-01
1.313560e-01
1.294750e-01
1.261990e-01
1.215290e-01
1.470250e-01
1.453580e-01
1.422610e-01
1.377350e-01
1.317800e-01
1.607000e-01
1.576920e-01
1.533000e-01
1.475250e-01
1.403670e-01
1.728650e-01
1.683570e-01
1.625910e-01
1.555690e-01
1.472890e-01
1.835220e-01
1.773530e-01
1.701350e-01
1.618660e-01
1.525480e-01
1.215290e-01
1.177060e-01
1.135840e-01
1.091620e-01
1.044400e-01
1.317800e-01
1.269500e-01
1.221310e-01
1.173240e-01
1.125290e-01
1.403670e-01
1.345670e-01
1.290920e-01
1.239410e-01
1.191140e-01
1.472890e-01
1.405580e-01
1.344660e-01
1.290120e-01
1.241970e-01
1.525480e-01
1.449230e-01
1.382530e-01
1.325370e-01
1.277770e-01
8.939170e-02
9.302650e-02
9.635630e-02
9.938110e-02
1.021010e-01
8.740010e-02
9.077430e-02
9.382940e-02
9.656550e-02
9.898260e-02
8.530680e-02
8.841820e-02
9.120970e-02
9.368130e-02
9.583310e-02
8.311190e-02
8.595840e-02
8.849720e-02
9.072850e-02
9.265210e-02
8.081530e-02
8.339470e-02
8.569190e-02
8.770690e-02
8.943970e-02
1.021010e-01
1.046300e-01
1.068930e-01
1.088890e-01
1.106190e-01
9.898260e-02
1.011710e-01