<?xml version="1.0"?>
<VTKFile type="UnstructuredGrid" version="0.1" byte_order="LittleEndian" compressor="vtkZLibDataCompressor">
<UnstructuredGrid>
<Piece NumberOfPoints="10000" NumberOfCells="6400">
<Points>
<DataArray type="Float32" NumberOfComponents="3" format="ascii">
-3.360000e+00 0.000000e+00 0.000000e+00
-3.276000e+00 0.000000e+00 0.000000e+00
-3.192000e+00 0.000000e+00 0.000000e+00
-3.108000e+00 0.000000e+00 0.000000e+00
-3.024000e+00 0.000000e+00 0.000000e+00
-3.360000e+00 6.412500e-02 0.000000e+00
-3.276000e+00 6.412500e-02 0.000000e+00
-3.192000e+00 6.412500e-02 0.000000e+00
-3.108000e+00 6.412500e-02 0.000000e+00
-3.024000e+00 6.412500e-02 0.000000e+00
-3.360000e+00 1.282500e-01 0.000000e+00
-3.276000e+00 1.282500e-01 0.000000e+00
-3.192000e+00 1.282500e-01 0.000000e+00
-3.108000e+00 1.282500e-01 0.000000e+00
-3.024000e+00 1.282500e-01 0.000000e+00
-3.360000e+00 1.923750e-01 0.000000e+00
-3.276000e+00 1.923750e-01 0.000000e+00
-3.192000e+00 1.923750e-01 0.000000e+00
-3.108000e+00 1.923750e-01 0.000000e+00
-3.024000e+00 1.923750e-01 0.000000e+00
-3.360000e+00 2.565000e-01 0.000000e+00
-3.276000e+00 2.565000e-01 0.000000e+00
-3.192000e+00 2.565000e-01 0.000000e+00
-3.108000e+00 2.565000e-01 0.000000e+00
-3.024000e+00 2.565000e-01 0.000000e+00
-3.024000e+00 0.000000e+00 0.000000e+00
-2.940000e+00 0.000000e+00 0.000000e+00
-2.856000e+00 0.000000e+00 0.000000e+00
-2.772000e+00 0.000000e+00 0.000000e+00
-2.688000e+00 0.000000e+00 0.000000e+00
-3.024000e+00 6.412500e-02 0.000000e+00
-2.940000e+00 6.412500e-02 0.000000e+00
-2.856000e+00 6.412500e-02 0.000000e+00
-2.772000e+00 6.412500e-02 0.000000e+00
-2.688000e+00 6.412500e-02 0.000000e+00
-3.024000e+00 1.282500e-01 0.000000e+00
-2.940000e+00 1.282500e-01 0.000000e+00
-2.856000e+00 1.282500e-01 0.000000e+00
-2.772000e+00 1.282500e-01 0.000000e+00
-2.688000e+00 1.282500e-01 0.000000e+00
-3.024000e+00 1.923750e-01 0.000000e+00
-2.940000e+00 1.923750e-01 0.000000e+00
-2.856000e+00 1.923750e-01 0.000000e+00
-2.772000e+00 1.923750e-01 0.000000e+00
-2.688000e+00 1.923750e-01 0.000000e+00
-3.024000e+00 2.565000e-01 0.000000e+00
-2.940000e+00 2.565000e-01 0.000000e+00
-2.856000e+00 2.565000e-01 0.000000e+00
-2.772000e+00 2.565000e-01 0.000000e+00
-2.688000e+00 2.565000e-01 0.000000e+00
-2.688000e+00 0.000000e+00 0.000000e+00
-2.604000e+00 0.000000e+00 0.000000e+00
-2.520000e+00 0.000000e+00 0.000000e+00
-2.436000e+00 0.000000e+00 0.000000e+00
-2.352000e+00 0.000000e+00 0.000000e+00
-2.688000e+00 6.412500e-02 0.000000e+00
-2.604000e+00 6.412500e-02 0.000000e+00
-2.520000e+00 6.412500e-02 0.000000e+00
-2.436000e+00 6.412500e-02 0.000000e+00
-2.352000e+00 6.412500e-02 0.000000e+00
-2.688000e+00 1.282500e-01 0.000000e+00
-2.604000e+00 1.282500e-01 0.000000e+00
-2.520000e+00 1.282500e-01 0.000000e+00
-2.436000e+00 1.282500e-01 0.000000e+00
-2.352000e+00 1.282500e-01 0.000000e+00
-2.688000e+00 1.923750e-01 0.000000e+00
-2.604000e+00 1.923750e-01 0.000000e+00
-2.520000e+00 1.923750e-01 0.000000e+00
-2.436000e+00 1.923750e-01 0.000000e+00
-2.352000e+00 1.923750e-01 0.000000e+00
-2.688000e+00 2.565000e-01 0.000000e+00
-2.604000e+00 2.565000e-01 0.000000e+00
-2.520000e+00 2.565000e-01 0.000000e+00
-2.436000e+00 2.565000e-01 0.000000e+00
-2.352000e+00 2.565000e-01 0.000000e+00
-2.352000e+00 0.000000e+00 0.000000e+00
-2.268000e+00 0.000000e+00 0.000000e+00
-2.184000e+00 0.000000e+00 0.000000e+00
-2.100000e+00 0.000000e+00 0.000000e+00
-2.016000e+00 0.000000e+00 0.000000e+00
-2.352000e+00 6.412500e-02 0.000000e+00
-2.268000e+00 6.412500e-02 0.000000e+00
-2.184000e+00 6.412500e-02 0.000000e+00
-2.100000e+00 6.412500e-02 0.000000e+00
-2.016000e+00 6.412500e-02 0.000000e+00
-2.352000e+00 1.282500e-01 0.000000e+00
-2.268000e+00 1.282500e-01 0.000000e+00
-2.184000e+00 1.282500e-01 0.000000e+00
-2.100000e+00 1.282500e-01 0.000000e+00
-2.016000e+00 1.282500e-01 0.000000e+00
-2.352000e+00 1.923750e-01 0.000000e+00
-2.268000e+00 1.923750e-01 0.000000e+00
-2.184000e+00 1.923750e-01 0.000000e+00
-2.100000e+00 1.923750e-01 0.000000e+00
-2.016000e+00 1.923750e-01 0.000000e+00
-2.352000e+00 2.565000e-01 0.000000e+00
-2.268000e+00 2.565000e-01 0.000000e+00
-2.184000e+00 2.565000e-01 0.000000e+00
-2.100000e+00 2.565000e-01 0.000000e+00
-2.016000e+00 2.565000e-01 0.000000e+00
-2.016000e+00 0.000000e+00 0.000000e+00
-1.932000e+00 0.000000e+00 0.000000e+00
-1.848000e+00 0.000000e+00 0.000000e+00
-1.764000e+00 0.000000e+00 0.000000e+00
-1.680000e+00 0.000000e+00 0.000000e+00
-2.016000e+00 6.412500e-02 0.000000e+00
-1.932000e+00 6.412500e-02 0.000000e+00
-1.848000e+00 6.412500e-02 0.000000e+00
-1.764000e+00 6.412500e-02 0.000000e+00
-1.680000e+00 6.412500e-02 0.000000e+00
-2.016000e+00 1.282500e-01 0.000000e+00
-1.932000e+00 1.282500e-01 0.000000e+00
-1.848000e+00 1.282500e-01 0.000000e+00
-1.764000e+00 1.282500e-01 0.000000e+00
-1.680000e+00 1.282500e-01 0.000000e+00
-2.016000e+00 1.923750e-01 0.000000e+00
-1.932000e+00 1.923750e-01 0.000000e+00
-1.848000e+00 1.923750e-01 0.000000e+00
-1.764000e+00 1.923750e-01 0.000000e+00
-1.680000e+00 1.923750e-01 0.000000e+00
-2.016000e+00 2.565000e-01 0.000000e+00
-1.932000e+00 2.565000e-01 0.000000e+00
-1.848000e+00 2.565000e-01 0.000000e+00
-1.764000e+00 2.565000e-01 0.000000e+00
-1.680000e+00 2.565000e-01 0.000000e+00
-1.680000e+00 0.000000e+00 0.000000e+00
-1.596000e+00 0.000000e+00 0.000000e+00
-1.512000e+00 0.000000e+00 0.000000e+00
-1.428000e+00 0.000000e+00 0.000000e+00
-1.344000e+00 0.000000e+00 0.000000e+00
-1.680000e+00 6.412500e-02 0.000000e+00
-1.596000e+00 6.412500e-02 0.000000e+00
-1.512000e+00 6.412500e-02 0.000000e+00
-1.428000e+00 6.412500e-02 0.000000e+00
-1.344000e+00 6.412500e-02 0.000000e+00
-1.680000e+00 1.282500e-01 0.000000e+00
-1.596000e+00 1.282500e-01 0.000000e+00
-1.512000e+00 1.282500e-01 0.000000e+00
-1.428000e+00 1.282500e-01 0.000000e+00
-1.344000e+00 1.282500e-01 0.000000e+00
-1.680000e+00 1.923750e-01 0.000000e+00
-1.596000e+00 1.923750e-01 0.000000e+00
-1.512000e+00 1.923750e-01 0.000000e+00
-1.428000e+00 1.923750e-01 0.000000e+00
-1.344000e+00 1.923750e-01 0.000000e+00
-1.680000e+00 2.565000e-01 0.000000e+00
-1.596000e+00 2.565000e-01 0.000000e+00
-1.512000e+00 2.565000e-01 0.000000e+00
-1.428000e+00 2.565000e-01 0.000000e+00
-1.344000e+00 2.565000e-01 0.000000e+00
-1.344000e+00 0.000000e+00 0.000000e+00
-1.260000e+00 0.000000e+00 0.000000e+00
-1.176000e+00 0.000000e+00 0.000000e+00
-1.092000e+00 0.000000e+00 0.000000e+00
-1.008000e+00 0.000000e+00 0.000000e+00
-1.344000e+00 6.412500e-02 0.000000e+00
-1.260000e+00 6.412500e-02 0.000000e+00
-1.176000e+00 6.412500e-02 0.000000e+00
-1.092000e+00 6.412500e-02 0.000000e+00
-1.008000e+00 6.412500e-02 0.000000e+00
-1.344000e+00 1.282500e-01 0.000000e+00
-1.260000e+00 1.282500e-01 0.000000e+00
-1.176000e+00 1.282500e-01 0.000000e+00
-1.092000e+00 1.282500e-01 0.000000e+00
-1.008000e+00 1.282500e-01 0.000000e+00
-1.344000e+00 1.923750e-01 0.000000e+00
-1.260000e+00 1.923750e-01 0.000000e+00
-1.176000e+00 1.923750e-01 0.000000e+00
-1.092000e+00 1.923750e-01 0.000000e+00
-1.008000e+00 1.923750e-01 0.000000e+00
-1.344000e+00 2.565000e-01 0.000000e+00
-1.260000e+00 2.565000e-01 0.000000e+00
-1.176000e+00 2.565000e-01 0.000000e+00
-1.092000e+00 2.565000e-01 0.000000e+00
-1.008000e+00 2.565000e-01 0.000000e+00
-1.008000e+00 0.000000e+00 0.000000e+00
-9.240000e-01 0.000000e+00 0.000000e+00
-8.400000e-01 0.000000e+00 0.000000e+00
-7.560000e-01 0.000000e+00 0.000000e+00
-6.720000e-01 0.000000e+00 0.000000e+00
-1.008000e+00 6.412500e-02 0.000000e+00
-9.240000e-01 6.412500e-02 0.000000e+00
-8.400000e-01 6.412500e-02 0.000000e+00
-7.560000e-01 6.412500e-02 0.000000e+00
-6.720000e-01 6.412500e-02 0.000000e+00
-1.008000e+00 1.282500e-01 0.000000e+00
-9.240000e-01 1.282500e-01 0.000000e+00
-8.400000e-01 1.282500e-01 0.000000e+00
-7.560000e-01 1.282500e-01 0.000000e+00
-6.720000e-01 1.282500e-01 0.000000e+00
-1.008000e+00 1.923750e-01 0.000000e+00
-9.240000e-01 1.923750e-01 0.000000e+00
-8.400000e-01 1.923750e-01 0.000000e+00
-7.560000e-01 1.923750e-01 0.000000e+00
-6.720000e-01 1.923750e-01 0.000000e+00
-1.008000e+00 2.565000e-01 0.000000e+00
-9.240000e-01 2.565000e-01 0.000000e+00
-8.400000e-01 2.565000e-01 0.000000e+00
-7.560000e-01 2.565000e-01 0.000000e+00
-6.720000e-01 2.565000e-01 0.000000e+00
-6.720000e-01 0.000000e+00 0.000000e+00
-5.880000e-01 0.000000e+00 0.000000e+00
-5.040000e-01 0.000000e+00 0.000000e+00
-4.200000e-01 0.000000e+00 0.000000e+00
-3.360000e-01 0.000000e+00 0.000000e+00
-6.720000e-01 6.412500e-02 0.000000e+00
-5.880000e-01 6.412500e-02 0.000000e+00
-5.040000e-01 6.412500e-02 0.000000e+00
-4.200000e-01 6.412500e-02 0.000000e+00
-3.360000e-01 6.412500e-02 0.000000e+00
-6.720000e-01 1.282500e-01 0.000000e+00
-5.880000e-01 1.282500e-01 0.000000e+00
-5.040000e-01 1.282500e-01 0.000000e+00
-4.200000e-01 1.282500e-01 0.000000e+00
-3.360000e-01 1.282500e-01 0.000000e+00
-6.720000e-01 1.923750e-01 0.000000e+00
-5.880000e-01 1.923750e-01 0.000000e+00
-5.040000e-01 1.923750e-01 0.000000e+00
-4.200000e-01 1.923750e-01 0.000000e+00
-3.360000e-01 1.923750e-01 0.000000e+00
-6.720000e-01 2.565000e-01 0.000000e+00
-5.880000e-01 2.565000e-01 0.000000e+00
-5.040000e-01 2.565000e-01 0.000000e+00
-4.200000e-01 2.565000e-01 0.000000e+00
-3.360000e-01 2.565000e-01 0.000000e+00
-3.360000e-01 0.000000e+00 0.000000e+00
-2.520000e-01 0.000000e+00 0.000000e+00
-1.680000e-01 0.000000e+00 0.000000e+00
-8.400000e-02 0.000000e+00 0.000000e+00
-4.440890e-16 0.000000e+00 0.000000e+00
-3.360000e-01 6.412500e-02 0.000000e+00
-2.520000e-01 6.412500e-02 0.000000e+00
-1.680000e-01 6.412500e-02 0.000000e+00
-8.400000e-02 6.412500e-02 0.000000e+00
-4.440890e-16 6.412500e-02 0.000000e+00
-3.360000e-01 1.282500e-01 0.000000e+00
-2.520000e-01 1.282500e-01 0.000000e+00
-1.680000e-01 1.282500e-01 0.000000e+00
-8.400000e-02 1.282500e-01 0.000000e+00
-4.440890e-16 1.282500e-01 0.000000e+00
-3.360000e-01 1.923750e-01 0.000000e+00
-2.520000e-01 1.923750e-01 0.000000e+00
-1.680000e-01 1.923750e-01 0.000000e+00
[...]
<PointData>
<DataArray type="Float32" Name="V1" format="ascii">
0.000000e+00
0.000000e+00
0.000000e+00
0.000000e+00
0.000000e+00
6.347820e-02
5.967250e-02
5.539320e-02
5.064040e-02
4.541410e-02
1.013490e-01
9.779340e-02
9.298430e-02
8.692120e-02
7.960420e-02
1.136110e-01
1.143630e-01
1.127730e-01
1.088420e-01
1.025700e-01
1.002660e-01
1.093810e-01
1.147600e-01
1.164040e-01
1.143130e-01
0.000000e+00
0.000000e+00
0.000000e+00
0.000000e+00
0.000000e+00
4.541410e-02
3.970540e-02
3.537910e-02
3.243530e-02
3.087370e-02
7.960420e-02
7.131330e-02
6.486670e-02
6.026450e-02
5.750660e-02
1.025700e-01
9.482360e-02
8.846270e-02
8.348770e-02
7.989860e-02
1.143130e-01
1.102360e-01
1.061670e-01
1.021050e-01
9.804980e-02
0.000000e+00
0.000000e+00
0.000000e+00
0.000000e+00
0.000000e+00
3.087370e-02
2.953210e-02
2.848850e-02
2.774280e-02
2.729510e-02
5.750660e-02
5.523020e-02
5.350900e-02
5.234290e-02
5.173200e-02
7.989860e-02
7.709430e-02
7.506150e-02
7.380030e-02
7.331070e-02
9.804980e-02
9.512430e-02
9.314610e-02
9.211510e-02
9.203130e-02
0.000000e+00
0.000000e+00
0.000000e+00
0.000000e+00
0.000000e+00
2.729510e-02
2.698920e-02
2.698940e-02
2.729540e-02
2.790740e-02
5.173200e-02
5.139140e-02
5.155810e-02
5.223210e-02
5.341320e-02
7.331070e-02
7.320660e-02
7.370630e-02
7.481000e-02
7.651750e-02
9.203130e-02
9.243470e-02
9.343400e-02
9.502910e-02
9.722010e-02
0.000000e+00
0.000000e+00
0.000000e+00
0.000000e+00
0.000000e+00
2.790740e-02
2.867480e-02
2.965510e-02
3.084850e-02
3.225480e-02
5.341320e-02
5.488590e-02
5.674690e-02
5.899610e-02
6.163360e-02
7.651750e-02
7.863340e-02
8.127520e-02
8.444290e-02
8.813660e-02
9.722010e-02
9.991720e-02
1.032400e-01
1.071890e-01
1.117640e-01
0.000000e+00
0.000000e+00
0.000000e+00
0.000000e+00
0.000000e+00
3.225480e-02
3.386900e-02
3.583460e-02
3.815180e-02
4.082040e-02
6.163360e-02
6.463950e-02
6.824910e-02
7.246250e-02
7.727960e-02
8.813660e-02
9.231150e-02
9.724340e-02
1.029320e-01
1.093780e-01
1.117640e-01
1.168850e-01
1.228180e-01
1.295610e-01
1.371150e-01
0.000000e+00
0.000000e+00
0.000000e+00
0.000000e+00
0.000000e+00
4.082040e-02
4.375700e-02
4.726690e-02
5.135000e-02
5.600640e-02
7.727960e-02
8.256220e-02
8.881230e-02
9.602990e-02
1.042150e-01
1.093780e-01
1.164160e-01
1.246360e-01
1.340400e-01
1.446260e-01
1.371150e-01
1.453170e-01
1.547390e-01
1.653790e-01
1.772400e-01
0.000000e+00
0.000000e+00
0.000000e+00
0.000000e+00
0.000000e+00
5.600640e-02
6.091800e-02
6.683920e-02
7.377010e-02
8.171070e-02
1.042150e-01
1.128310e-01
1.231110e-01
1.350540e-01
1.486600e-01
1.446260e-01
1.557400e-01
1.688150e-01
1.838510e-01
2.008490e-01
1.772400e-01
1.896440e-01
2.039520e-01
2.201630e-01
2.382760e-01
0.000000e+00
0.000000e+00
0.000000e+00
0.000000e+00
0.000000e+00
8.171070e-02
8.970850e-02
9.928610e-02
1.104430e-01
1.231800e-01
1.486600e-01
1.623830e-01
1.786530e-01
1.974690e-01
2.188330e-01
2.008490e-01
2.180240e-01
2.381000e-01
2.610780e-01
2.869580e-01
2.382760e-01
2.566300e-01
2.776280e-01
3.012700e-01
3.275550e-01
0.000000e+00
0.000000e+00
0.000000e+00
0.000000e+00
0.000000e+00
1.231800e-01
1.362060e-01
1.506700e-01
1.665730e-01
1.839160e-01
2.188330e-01
2.408140e-01
2.650880e-01
2.916530e-01
3.205100e-01
2.869580e-01
3.138260e-01
3.432530e-01
3.752390e-01
4.097830e-01
3.275550e-01
3.552410e-01
3.851660e-01
4.173310e-01
4.517340e-01
0.000000e+00
0.000000e+00
0.000000e+00
0.000000e+00
0.000000e+00
1.839160e-01
2.039230e-01
2.229430e-01
2.409750e-01
2.580190e-01
3.205100e-01
3.539980e-01
3.861070e-01
4.168350e-01
4.461850e-01
4.097830e-01
4.502250e-01
4.894920e-01
5.275830e-01
5.644980e-01
4.517340e-01
4.926040e-01
5.330970e-01
5.732160e-01
6.129590e-01
0.000000e+00
0.000000e+00
0.000000e+00
0.000000e+00
0.000000e+00
2.580190e-01
2.792310e-01
2.953340e-01
3.063280e-01
3.122130e-01
4.461850e-01
4.827180e-01
5.116900e-01
5.330990e-01
5.469460e-01
5.644980e-01
6.104630e-01
6.490680e-01
6.803130e-01
7.041970e-01
6.129590e-01
6.624650e-01
7.074690e-01
7.479700e-01
7.839680e-01
0.000000e+00
0.000000e+00
0.000000e+00
0.000000e+00
0.000000e+00
3.122130e-01
3.117300e-01
3.050710e-01
2.922390e-01
2.732310e-01
5.469460e-01
5.513660e-01
5.457890e-01
5.302140e-01
5.046410e-01
7.041970e-01
7.189090e-01
7.221520e-01
7.139250e-01
6.942290e-01
7.839680e-01
8.143590e-01
8.341610e-01
8.433730e-01
8.419950e-01
0.000000e+00
0.000000e+00
0.000000e+00
0.000000e+00
0.000000e+00
2.732310e-01
2.376650e-01
2.033170e-01
1.701880e-01
1.382760e-01
5.046410e-01
4.509220e-01
3.962060e-01
3.404920e-01
2.837810e-01
6.942290e-01
6.397700e-01
5.786650e-01
5.109130e-01
4.365130e-01
8.419950e-01
8.042100e-01
7.506950e-01
6.814500e-01
5.964740e-01
0.000000e+00
0.000000e+00
0.000000e+00
0.000000e+00
0.000000e+00
1.382760e-01
1.106320e-01
8.516450e-02
6.187290e-02
4.075740e-02
2.837810e-01
2.304800e-01
1.807160e-01
1.344870e-01
9.179300e-02
4.365130e-01
3.595440e-01
2.866530e-01
2.178410e-01
1.531070e-01
5.964740e-01
4.978240e-01
4.029770e-01
3.119360e-01
2.246990e-01
0.000000e+00
0.000000e+00
0.000000e+00
0.000000e+00
0.000000e+00
4.075740e-02
2.732500e-02
1.499700e-02
3.773200e-03
-6.346290e-03
9.179300e-02
6.451950e-02
4.030840e-02
1.915950e-02
1.072910e-03
1.531070e-01
1.115830e-01
7.593420e-02
4.615890e-02
2.225760e-02
2.246990e-01
1.685170e-01
1.218740e-01
8.477140e-02
5.720770e-02
0.000000e+00
0.000000e+00
0.000000e+00
0.000000e+00
0.000000e+00
-6.346290e-03
-1.299810e-02
-1.581610e-02
-1.480040e-02
-9.950760e-03
1.072910e-03
-1.098410e-02
-1.628470e-02
-1.482880e-02
-6.616410e-03
2.225760e-02
6.041910e-03
-1.405730e-03
-8.534980e-05
1.000310e-02
5.720770e-02
3.808010e-02
2.882080e-02
2.943000e-02
3.990770e-02
0.000000e+00
0.000000e+00
0.000000e+00
0.000000e+00
0.000000e+00
-9.950760e-03
-7.387810e-03
-4.458890e-03
-1.164000e-03
2.496860e-03
-6.616410e-03
-2.106020e-03
2.802530e-03
8.109240e-03
1.381410e-02
1.000310e-02
1.584540e-02
2.178430e-02
2.781970e-02
3.395180e-02
3.990770e-02
4.646630e-02
5.248630e-02
5.796750e-02
6.290990e-02
0.000000e+00
0.000000e+00
0.000000e+00
0.000000e+00
0.000000e+00
2.496860e-03
5.168540e-03
7.168900e-03
8.497940e-03
9.155660e-03
1.381410e-02
1.789970e-02
2.086640e-02
2.271410e-02
2.344290e-02
3.395180e-02
3.819360e-02
4.109250e-02
4.264860e-02
4.286170e-02
6.290990e-02
6.605010e-02
6.784720e-02
6.830130e-02
6.741220e-02
0.000000e+00
0.000000e+00
0.000000e+00
0.000000e+00
0.000000e+00
9.155660e-03
1.019560e-02
9.888050e-03
8.233000e-03
5.230430e-03
2.344290e-02
2.458470e-02
2.382850e-02
2.117420e-02
1.662190e-02
4.286170e-02
4.316730e-02
4.182130e-02
3.882360e-02
3.417430e-02
6.741220e-02
6.594340e-02
6.386640e-02
6.118120e-02
5.788770e-02
1.002660e-01
1.093810e-01
1.147600e-01
1.164040e-01
1.143130e-01
9.945850e-02
1.077760e-01
1.137130e-01
1.172700e-01
1.184470e-01
9.848610e-02
1.058270e-01
1.118410e-01
1.165280e-01
1.198900e-01
9.734850e-02
1.035330e-01
1.091430e-01
1.141780e-01
1.186390e-01
9.604590e-02
1.008950e-01
1.056200e-01
1.102200e-01
1.146970e-01
1.143130e-01
1.102360e-01
1.061670e-01
1.021050e-01
9.804980e-02
1.184470e-01
1.172300e-01
1.154170e-01
1.130080e-01
1.100020e-01
1.198900e-01
1.208750e-01
1.208840e-01
1.199160e-01
1.179720e-01
1.186390e-01
1.211720e-01
1.225690e-01
1.228310e-01
1.219580e-01
1.146970e-01
1.181190e-01
1.204710e-01
1.217510e-01
1.219600e-01
9.804980e-02
9.512430e-02
9.314610e-02
9.211510e-02
9.203130e-02
1.100020e-01
1.075910e-01
1.060340e-01
1.053290e-01
1.054780e-01
1.179720e-01
1.161960e-01
1.151380e-01
1.147980e-01
1.151750e-01
1.219580e-01
1.209390e-01
1.204600e-01
1.205210e-01
1.211210e-01
1.219600e-01
1.218200e-01
1.219990e-01
1.224980e-01
1.233160e-01
9.203130e-02
9.243470e-02
9.343400e-02
9.502910e-02
9.722010e-02
1.054780e-01
1.061960e-01
1.075150e-01
1.094330e-01
1.119520e-01
1.151750e-01
1.161520e-01
1.177130e-01
1.198600e-01
1.225900e-01
1.211210e-01
1.223010e-01
1.240300e-01
1.263080e-01
1.291340e-01
1.233160e-01
1.246440e-01
1.264640e-01
1.287780e-01
1.315840e-01
9.722010e-02
9.991720e-02
1.032400e-01
1.071890e-01
1.117640e-01
1.119520e-01
1.149710e-01
1.186370e-01
1.229510e-01
1.279120e-01
1.225900e-01
1.258040e-01
1.296630e-01
1.341680e-01
1.393170e-01
1.291340e-01
1.324170e-01
1.363180e-01
1.408380e-01
1.459770e-01
1.315840e-01
1.348090e-01
1.386020e-01
1.429640e-01
1.478940e-01
1.117640e-01
1.168850e-01
1.228180e-01
1.295610e-01
1.371150e-01
1.279120e-01
1.334240e-01
1.397420e-01
1.468660e-01
1.547970e-01
1.393170e-01
1.450020e-01
1.514700e-01
1.587220e-01
1.667580e-01
1.459770e-01
1.516180e-01
1.580020e-01
1.651290e-01
1.730000e-01
1.478940e-01
1.532740e-01
1.593380e-01
1.660870e-01
1.735210e-01
1.371150e-01
1.453170e-01
1.547390e-01
1.653790e-01
1.772400e-01
1.547970e-01
1.633120e-01
1.730130e-01
1.839010e-01
1.959740e-01
1.667580e-01
1.753140e-01
1.850060e-01
1.958350e-01
2.078010e-01
1.730000e-01
1.813220e-01
1.907160e-01
2.011830e-01
2.127210e-01
1.735210e-01
1.813360e-01
1.901440e-01
1.999430e-01
2.107350e-01
1.772400e-01
1.896440e-01
2.039520e-01
2.201630e-01
2.382760e-01
1.959740e-01
2.084320e-01
2.227500e-01
2.389280e-01
2.569640e-01
2.078010e-01
2.200140e-01
2.340350e-01
2.498660e-01
2.675050e-01
2.127210e-01
2.243880e-01
2.378070e-01
2.529770e-01
2.698990e-01
2.107350e-01
2.215560e-01
2.340650e-01
2.482610e-01
2.641450e-01
2.382760e-01
2.566300e-01
2.776280e-01
3.012700e-01
3.275550e-01
2.569640e-01
2.749250e-01
2.955860e-01
3.189470e-01
3.450090e-01
2.675050e-01
2.847660e-01
3.048000e-01
3.276080e-01
3.531900e-01
2.698990e-01
2.861520e-01
3.052690e-01
3.272510e-01
3.520980e-01
2.641450e-01
2.790830e-01
2.969930e-01
3.178770e-01
3.417340e-01
3.275550e-01
3.552410e-01
3.851660e-01
4.173310e-01
4.517340e-01
3.450090e-01
3.720070e-01
4.015990e-01
4.337870e-01
4.685680e-01
3.531900e-01
3.791900e-01
4.081470e-01
4.400600e-01
4.749300e-01
3.520980e-01
3.767910e-01
4.048090e-01
4.361520e-01
4.708200e-01
3.417340e-01
3.648090e-01
3.915850e-01
4.220610e-01
4.562380e-01
4.517340e-01
4.926040e-01
5.330970e-01
5.732160e-01
6.129590e-01
4.685680e-01
5.100560e-01
5.516310e-01
5.932920e-01
6.350390e-01
4.749300e-01
5.166250e-01
5.588320e-01
6.015500e-01
6.447800e-01
4.708200e-01
5.123100e-01
5.547010e-01
5.979920e-01
6.421840e-01
4.562380e-01
4.971110e-01
5.392370e-01
5.826170e-01
6.272500e-01
6.129590e-01
6.624650e-01
7.074690e-01
7.479700e-01
7.839680e-01
6.350390e-01
6.891110e-01
7.388610e-01
7.842890e-01
8.253960e-01
6.447800e-01
7.030190e-01
7.570450e-01
8.068590e-01
8.524610e-01
6.421840e-01
7.041900e-01
7.620220e-01
8.156790e-01
8.651620e-01
6.272500e-01
6.926250e-01
7.537920e-01
8.107500e-01
8.635010e-01
7.839680e-01
8.143590e-01
8.341610e-01
8.433730e-01
8.419950e-01
8.253960e-01
8.646910e-01
8.942940e-01
9.142060e-01
9.244260e-01
8.524610e-01
8.994510e-01
9.373150e-01
9.660540e-01
9.856680e-01
8.651620e-01
9.186390e-01
9.632240e-01
9.989180e-01
1.025720e+00
8.635010e-01
9.222560e-01
9.720210e-01
1.012800e+00
1.044580e+00
8.419950e-01
8.042100e-01
7.506950e-01
6.814500e-01
5.964740e-01
9.244260e-01
9.026270e-01
8.647870e-01
8.109060e-01
7.409860e-01
9.856680e-01
9.754420e-01
9.502180e-01
9.099950e-01
8.547730e-01
1.025720e+00
1.022660e+00
1.006990e+00
9.787160e-01
9.378360e-01
1.044580e+00
1.044270e+00
1.035100e+00
1.017070e+00
9.901760e-01
5.964740e-01
4.978240e-01
4.029770e-01
3.119360e-01
2.246990e-01
7.409860e-01
6.374530e-01
5.318120e-01
4.240610e-01
3.142030e-01
8.547730e-01
7.549440e-01
6.469550e-01
5.308050e-01
4.064940e-01
9.378360e-01
8.502970e-01
7.484070e-01
6.321660e-01
5.015740e-01
9.901760e-01
9.235120e-01
8.361690e-01
7.281450e-01
5.994410e-01
2.246990e-01
1.685170e-01
1.218740e-01
8.477140e-02
5.720770e-02
3.142030e-01
2.436030e-01
1.846770e-01
1.374250e-01
1.018470e-01
4.064940e-01
3.232550e-01
2.528500e-01
1.952790e-01
1.505420e-01
5.015740e-01
4.074750e-01
3.263940e-01
2.583330e-01
2.032910e-01
5.994410e-01
4.962610e-01
4.053100e-01
3.265880e-01
2.600950e-01
5.720770e-02
3.808010e-02
2.882080e-02
2.943000e-02
3.990770e-02
1.018470e-01
7.522660e-02
6.071480e-02
5.831190e-02
6.801790e-02
1.505420e-01
1.157810e-01
9.509380e-02
8.848150e-02
9.594370e-02
2.032910e-01
1.597420e-01
1.319580e-01
1.199390e-01
1.236850e-01
2.600950e-01
2.071110e-01
1.713070e-01
1.526840e-01
1.512420e-01
3.990770e-02
4.646630e-02
5.248630e-02
5.796750e-02
6.290990e-02
6.801790e-02
7.459480e-02
8.020190e-02
8.483900e-02
8.850630e-02
9.594370e-02
1.015110e-01
1.059410e-01
1.092350e-01
1.113930e-01
1.236850e-01
1.272130e-01
1.297040e-01
1.311560e-01
1.315700e-01
1.512420e-01
1.517030e-01
1.514900e-01
1.506010e-01
1.490380e-01
6.290990e-02
6.605010e-02
6.784720e-02
6.830130e-02
6.741220e-02
8.850630e-02
9.027750e-02
9.074920e-02
8.992140e-02
8.779410e-02
1.113930e-01
1.116400e-01
1.106950e-01
1.085580e-01
1.052290e-01
1.315700e-01
1.301370e-01
1.276840e-01
1.242110e-01
1.197170e-01
1.490380e-01
1.457700e-01
1.417170e-01
1.368800e-01
1.312580e-01
6.741220e-02
6.594340e-02
6.386640e-02
6.118120e-02
5.788770e-02
8.779410e-02
8.553930e-02
8.277090e-02
7.948890e-02
7.569330e-02
1.052290e-01
1.021990e-01
9.876580e-02
9.492830e-02
9.068670e-02
1.197170e-01
1.159240e-01
1.118510e-01
1.074990e-01
1.028680e-01
1.312580e-01
1.267120e-01
1.220270e-01
1.172020e-01
1.122370e-01
9.604590e-02
1.008950e-01
1.056200e-01
1.102200e-01
1.146970e-01
9.458900e-02
9.891550e-02
1.031720e-01
1.073570e-01
1.114720e-01
9.299440e-02
9.693800e-02
1.007980e-01
1.045750e-01
1.082680e-01
9.126190e-02
9.496210e-02
9.849940e-02
1.018740e-01
1.050850e-01
8.939170e-02
9.298800e-02
9.627530e-02
9.925340e-02
1.019220e-01
1.146970e-01
1.181190e-01
1.204710e-01
1.217510e-01
1.219600e-01
1.114720e-01
1.148900e-01
1.174680e-01
1.192070e-01
1.201060e-01
1.082680e-01
1.115290e-01
1.141680e-01
1.161860e-01
1.175820e-01
1.050850e-01
1.080370e-01
1.105720e-01
1.126890e-01
1.143880e-01
1.019220e-01
1.044140e-01
1.066780e-01
1.087150e-01
1.105250e-01
1.219600e-01
1.218200e-01
1.219990e-01
1.224980e-01
1.233160e-01
1.201060e-01
1.206040e-01
1.212990e-01
1.221880e-01
1.232730e-01
1.175820e-01
1.185830e-01
1.196910e-01
1.209030e-01
1.222210e-01
1.143880e-01
1.157570e-01
1.171750e-01
1.186440e-01
1.201620e-01
1.105250e-01
1.121250e-01
1.137530e-01
1.154090e-01
1.170940e-01
1.233160e-01
1.246440e-01
1.264640e-01
1.287780e-01
1.315840e-01
1.232730e-01
1.247590e-01
1.266780e-01
1.290310e-01
1.318170e-01
1.222210e-01
1.238490e-01
1.258540e-01
1.282360e-01
1.309940e-01
1.201620e-01
1.219150e-01
1.239920e-01
1.263930e-01
1.291170e-01
1.170940e-01
1.189570e-01
1.210930e-01
1.235020e-01
1.261850e-01
1.315840e-01
1.348090e-01
1.386020e-01
1.429640e-01
1.478940e-01
1.318170e-01
1.349830e-01
1.386760e-01
1.428960e-01
1.476430e-01
1.309940e-01
1.340950e-01
1.376810e-01
1.417520e-01
1.463100e-01
1.291170e-01
1.321450e-01
1.356170e-01
1.395330e-01
1.438940e-01
1.261850e-01
1.291330e-01
1.324840e-01
1.362390e-01
1.403970e-01
1.478940e-01
1.532740e-01
1.593380e-01
1.660870e-01
1.735210e-01
1.476430e-01
1.527890e-01
1.585830e-01
1.650250e-01
1.721150e-01
1.463100e-01
1.512170e-01
1.567340e-01
1.628620e-01
1.696010e-01
1.438940e-01
1.485560e-01
1.537900e-01
1.595980e-01
1.659770e-01
1.403970e-01
1.448080e-01
1.497520e-01
1.552310e-01
1.612450e-01
1.735210e-01
1.813360e-01
1.901440e-01
1.999430e-01
2.107350e-01
1.721150e-01
1.795290e-01
1.878920e-01
1.972050e-01
2.074670e-01
1.696010e-01
1.766040e-01
1.845110e-01
1.933200e-01
2.030330e-01
1.659770e-01
1.725620e-01
1.799990e-01
1.882890e-01
1.974300e-01
1.612450e-01
1.674020e-01
1.743570e-01
1.821100e-01
1.906610e-01
2.107350e-01
2.215560e-01
2.340650e-01
2.482610e-01
2.641450e-01
2.074670e-01
2.176850e-01
2.295580e-01
2.430870e-01
2.582720e-01
2.030330e-01
2.126220e-01
2.238160e-01
2.366150e-01
2.510170e-01
1.974300e-01
2.063700e-01
2.168410e-01
2.288440e-01
2.423800e-01
1.906610e-01
1.989260e-01
2.086320e-01
2.197770e-01
2.323610e-01
2.641450e-01
2.790830e-01
2.969930e-01
3.178770e-01
3.417340e-01
2.582720e-01
2.722170e-01
2.892810e-01
3.094640e-01
3.327660e-01
2.510170e-01
2.639060e-01
2.799940e-01
2.992830e-01
3.217710e-01
2.423800e-01
2.541490e-01
2.691340e-01
2.873340e-01
3.087500e-01
2.323610e-01
2.429460e-01
2.566990e-01
2.736180e-01
2.937030e-01
3.417340e-01
3.648090e-01
3.915850e-01
4.220610e-01
4.562380e-01
3.327660e-01
3.543560e-01
3.800770e-01
4.099270e-01
4.439060e-01
3.217710e-01
3.414470e-01
3.657160e-01
3.945760e-01
4.280290e-01
3.087500e-01
3.260820e-01
3.485020e-01
3.760110e-01
4.086080e-01
2.937030e-01
3.082610e-01
3.284360e-01
3.542300e-01
3.856410e-01
4.562380e-01
4.971110e-01
5.392370e-01
5.826170e-01
6.272500e-01
4.439060e-01
4.840390e-01
5.256880e-01
5.688510e-01
6.135290e-01
4.280290e-01
4.665450e-01
5.067090e-01
5.485210e-01
5.919820e-01
4.086080e-01
4.446260e-01
4.822990e-01
5.216270e-01
5.626090e-01
3.856410e-01
4.182840e-01
4.524600e-01
4.881690e-01
5.254100e-01
6.272500e-01
6.926250e-01
7.537920e-01
8.107500e-01
8.635010e-01
6.135290e-01
6.827330e-01
7.470180e-01
8.063840e-01
8.608320e-01
5.919820e-01
6.637400e-01
7.294940e-01
7.892440e-01
8.429910e-01
5.626090e-01
6.356460e-01
7.012190e-01
7.593290e-01
8.099760e-01
5.254100e-01
5.984500e-01
6.621930e-01
7.166390e-01
7.617880e-01
8.635010e-01
9.222560e-01
9.720210e-01
1.012800e+00
1.044580e+00
8.608320e-01
9.258480e-01
9.810710e-01
1.026500e+00
1.062140e+00
8.429910e-01
9.124090e-01
9.717260e-01
1.020940e+00
1.060050e+00
8.099760e-01
8.819410e-01
9.439850e-01
9.961080e-01
1.038310e+00
7.617880e-01
8.344420e-01
8.978480e-01
9.520050e-01
9.969140e-01
1.044580e+00
1.044270e+00
1.035100e+00
1.017070e+00
9.901760e-01
1.062140e+00
1.063080e+00
1.056060e+00
1.041060e+00
1.018100e+00
1.060050e+00
1.062400e+00
1.057980e+00
1.046790e+00
1.028840e+00
1.038310e+00
1.042220e+00
1.040870e+00
1.034270e+00
1.022410e+00
9.969140e-01
1.002540e+00
1.004730e+00
1.003480e+00
9.988020e-01
9.901760e-01
9.235120e-01
8.361690e-01
7.281450e-01
5.994410e-01
1.018100e+00
9.619980e-01
8.864220e-01
7.913720e-01
6.768460e-01
1.028840e+00
9.806990e-01
9.155740e-01
8.334670e-01
7.343790e-01
1.022410e+00
9.796170e-01
9.236240e-01
8.544320e-01
7.720410e-01
9.988020e-01
9.587500e-01
9.105720e-01
8.542650e-01
7.898320e-01
5.994410e-01
4.962610e-01
4.053100e-01
3.265880e-01
2.600950e-01
6.768460e-01
5.711970e-01
4.755260e-01
3.898320e-01
3.141160e-01
7.343790e-01
6.311600e-01
5.347760e-01
4.452270e-01
3.625110e-01
7.720410e-01
6.761510e-01
5.830610e-01
4.927710e-01
4.052810e-01
7.898320e-01
7.061690e-01
6.203800e-01
5.324660e-01
4.424260e-01
2.600950e-01
2.071110e-01
1.713070e-01
1.526840e-01
1.512420e-01
3.141160e-01
2.563500e-01
2.147810e-01
1.894100e-01
1.802360e-01
3.625110e-01
3.017420e-01
2.557950e-01
2.246700e-01
2.083670e-01
4.052810e-01
3.432860e-01
2.943470e-01
2.584640e-01
2.356360e-01
4.424260e-01
3.809830e-01
3.304380e-01
2.907910e-01
2.620420e-01
1.512420e-01
1.517030e-01
1.514900e-01
1.506010e-01
1.490380e-01
1.802360e-01
1.756570e-01
1.713810e-01
1.674100e-01
1.637430e-01
2.083670e-01
1.983990e-01
1.897460e-01
1.824070e-01
1.763830e-01
2.356360e-01
2.199320e-01
2.065840e-01
1.955920e-01
1.869570e-01
2.620420e-01
2.402530e-01
2.218950e-01
2.069650e-01
1.954660e-01
1.490380e-01
1.457700e-01
1.417170e-01
1.368800e-01
1.312580e-01
1.637430e-01
1.587770e-01
1.531950e-01
1.469980e-01
1.401840e-01
1.763830e-01
1.697640e-01
1.627240e-01
1.552630e-01
1.473800e-01
1.869570e-01
1.787300e-01
1.703030e-01
1.616750e-01
1.528470e-01
1.954660e-01
1.856760e-01
1.759330e-01
1.662360e-01
1.565840e-01
1.312580e-01
1.267120e-01
1.220270e-01
1.172020e-01
1.122370e-01
1.401840e-01
1.347820e-01
1.294920e-01
1.243140e-01
1.192490e-01
1.473800e-01
1.411950e-01
1.353670e-01
1.298970e-01
1.247850e-01
1.528470e-01
1.459520e-01
1.396530e-01
1.339500e-01
1.288430e-01
1.565840e-01
1.490530e-01
1.423490e-01
1.364730e-01
1.314250e-01
8.939170e-02
9.298800e-02
9.627530e-02
9.925340e-02
1.019220e-01
8.740010e-02
9.073850e-02
9.375800e-02
9.645850e-02
9.884010e-02
8.530680e-02
8.838520e-02
9.114780e-02
9.359460e-02
9.572560e-02
8.311190e-02
8.592810e-02
8.844470e-02
9.066160e-02
9.257880e-02
8.081530e-02
8.336730e-02
8.564880e-02
8.765960e-02
8.939990e-02
1.019220e-01
1.044140e-01
1.066780e-01
1.087150e-01
1.105250e-01
9.884010e-02
1.010080e-01