<?xml version="1.0"?>
<VTKFile type="UnstructuredGrid" version="0.1" byte_order="LittleEndian" compressor="vtkZLibDataCompressor">
<UnstructuredGrid>
<Piece NumberOfPoints="10000" NumberOfCells="6400">
<Points>
<DataArray type="Float32" NumberOfComponents="3" format="ascii">
-3.360000e+00 0.000000e+00 0.000000e+00
-3.276000e+00 0.000000e+00 0.000000e+00
-3.192000e+00 0.000000e+00 0.000000e+00
-3.108000e+00 0.000000e+00 0.000000e+00
-3.024000e+00 0.000000e+00 0.000000e+00
-3.360000e+00 6.412500e-02 0.000000e+00
-3.276000e+00 6.412500e-02 0.000000e+00
-3.192000e+00 6.412500e-02 0.000000e+00
-3.108000e+00 6.412500e-02 0.000000e+00
-3.024000e+00 6.412500e-02 0.000000e+00
-3.360000e+00 1.282500e-01 0.000000e+00
-3.276000e+00 1.282500e-01 0.000000e+00
-3.192000e+00 1.282500e-01 0.000000e+00
-3.108000e+00 1.282500e-01 0.000000e+00
-3.024000e+00 1.282500e-01 0.000000e+00
-3.360000e+00 1.923750e-01 0.000000e+00
-3.276000e+00 1.923750e-01 0.000000e+00
-3.192000e+00 1.923750e-01 0.000000e+00
-3.108000e+00 1.923750e-01 0.000000e+00
-3.024000e+00 1.923750e-01 0.000000e+00
-3.360000e+00 2.565000e-01 0.000000e+00
-3.276000e+00 2.565000e-01 0.000000e+00
-3.192000e+00 2.565000e-01 0.000000e+00
-3.108000e+00 2.565000e-01 0.000000e+00
-3.024000e+00 2.565000e-01 0.000000e+00
-3.024000e+00 0.000000e+00 0.000000e+00
-2.940000e+00 0.000000e+00 0.000000e+00
-2.856000e+00 0.000000e+00 0.000000e+00
-2.772000e+00 0.000000e+00 0.000000e+00
-2.688000e+00 0.000000e+00 0.000000e+00
-3.024000e+00 6.412500e-02 0.000000e+00
-2.940000e+00 6.412500e-02 0.000000e+00
-2.856000e+00 6.412500e-02 0.000000e+00
-2.772000e+00 6.412500e-02 0.000000e+00
-2.688000e+00 6.412500e-02 0.000000e+00
-3.024000e+00 1.282500e-01 0.000000e+00
-2.940000e+00 1.282500e-01 0.000000e+00
-2.856000e+00 1.282500e-01 0.000000e+00
-2.772000e+00 1.282500e-01 0.000000e+00
-2.688000e+00 1.282500e-01 0.000000e+00
-3.024000e+00 1.923750e-01 0.000000e+00
-2.940000e+00 1.923750e-01 0.000000e+00
-2.856000e+00 1.923750e-01 0.000000e+00
-2.772000e+00 1.923750e-01 0.000000e+00
-2.688000e+00 1.923750e-01 0.000000e+00
-3.024000e+00 2.565000e-01 0.000000e+00
-2.940000e+00 2.565000e-01 0.000000e+00
-2.856000e+00 2.565000e-01 0.000000e+00
-2.772000e+00 2.565000e-01 0.000000e+00
-2.688000e+00 2.565000e-01 0.000000e+00
-2.688000e+00 0.000000e+00 0.000000e+00
-2.604000e+00 0.000000e+00 0.000000e+00
-2.520000e+00 0.000000e+00 0.000000e+00
-2.436000e+00 0.000000e+00 0.000000e+00
-2.352000e+00 0.000000e+00 0.000000e+00
-2.688000e+00 6.412500e-02 0.000000e+00
-2.604000e+00 6.412500e-02 0.000000e+00
-2.520000e+00 6.412500e-02 0.000000e+00
-2.436000e+00 6.412500e-02 0.000000e+00
-2.352000e+00 6.412500e-02 0.000000e+00
-2.688000e+00 1.282500e-01 0.000000e+00
-2.604000e+00 1.282500e-01 0.000000e+00
-2.520000e+00 1.282500e-01 0.000000e+00
-2.436000e+00 1.282500e-01 0.000000e+00
-2.352000e+00 1.282500e-01 0.000000e+00
-2.688000e+00 1.923750e-01 0.000000e+00
-2.604000e+00 1.923750e-01 0.000000e+00
-2.520000e+00 1.923750e-01 0.000000e+00
-2.436000e+00 1.923750e-01 0.000000e+00
-2.352000e+00 1.923750e-01 0.000000e+00
-2.688000e+00 2.565000e-01 0.000000e+00
-2.604000e+00 2.565000e-01 0.000000e+00
-2.520000e+00 2.565000e-01 0.000000e+00
-2.436000e+00 2.565000e-01 0.000000e+00
-2.352000e+00 2.565000e-01 0.000000e+00
-2.352000e+00 0.000000e+00 0.000000e+00
-2.268000e+00 0.000000e+00 0.000000e+00
-2.184000e+00 0.000000e+00 0.000000e+00
-2.100000e+00 0.000000e+00 0.000000e+00
-2.016000e+00 0.000000e+00 0.000000e+00
-2.352000e+00 6.412500e-02 0.000000e+00
-2.268000e+00 6.412500e-02 0.000000e+00
-2.184000e+00 6.412500e-02 0.000000e+00
-2.100000e+00 6.412500e-02 0.000000e+00
-2.016000e+00 6.412500e-02 0.000000e+00
-2.352000e+00 1.282500e-01 0.000000e+00
-2.268000e+00 1.282500e-01 0.000000e+00
-2.184000e+00 1.282500e-01 0.000000e+00
-2.100000e+00 1.282500e-01 0.000000e+00
-2.016000e+00 1.282500e-01 0.000000e+00
-2.352000e+00 1.923750e-01 0.000000e+00
-2.268000e+00 1.923750e-01 0.000000e+00
-2.184000e+00 1.923750e-01 0.000000e+00
-2.100000e+00 1.923750e-01 0.000000e+00
-2.016000e+00 1.923750e-01 0.000000e+00
-2.352000e+00 2.565000e-01 0.000000e+00
-2.268000e+00 2.565000e-01 0.000000e+00
-2.184000e+00 2.565000e-01 0.000000e+00
-2.100000e+00 2.565000e-01 0.000000e+00
-2.016000e+00 2.565000e-01 0.000000e+00
-2.016000e+00 0.000000e+00 0.000000e+00
-1.932000e+00 0.000000e+00 0.000000e+00
-1.848000e+00 0.000000e+00 0.000000e+00
-1.764000e+00 0.000000e+00 0.000000e+00
-1.680000e+00 0.000000e+00 0.000000e+00
-2.016000e+00 6.412500e-02 0.000000e+00
-1.932000e+00 6.412500e-02 0.000000e+00
-1.848000e+00 6.412500e-02 0.000000e+00
-1.764000e+00 6.412500e-02 0.000000e+00
-1.680000e+00 6.412500e-02 0.000000e+00
-2.016000e+00 1.282500e-01 0.000000e+00
-1.932000e+00 1.282500e-01 0.000000e+00
-1.848000e+00 1.282500e-01 0.000000e+00
-1.764000e+00 1.282500e-01 0.000000e+00
-1.680000e+00 1.282500e-01 0.000000e+00
-2.016000e+00 1.923750e-01 0.000000e+00
-1.932000e+00 1.923750e-01 0.000000e+00
-1.848000e+00 1.923750e-01 0.000000e+00
-1.764000e+00 1.923750e-01 0.000000e+00
-1.680000e+00 1.923750e-01 0.000000e+00
-2.016000e+00 2.565000e-01 0.000000e+00
-1.932000e+00 2.565000e-01 0.000000e+00
-1.848000e+00 2.565000e-01 0.000000e+00
-1.764000e+00 2.565000e-01 0.000000e+00
-1.680000e+00 2.565000e-01 0.000000e+00
-1.680000e+00 0.000000e+00 0.000000e+00
-1.596000e+00 0.000000e+00 0.000000e+00
-1.512000e+00 0.000000e+00 0.000000e+00
-1.428000e+00 0.000000e+00 0.000000e+00
-1.344000e+00 0.000000e+00 0.000000e+00
-1.680000e+00 6.412500e-02 0.000000e+00
-1.596000e+00 6.412500e-02 0.000000e+00
-1.512000e+00 6.412500e-02 0.000000e+00
-1.428000e+00 6.412500e-02 0.000000e+00
-1.344000e+00 6.412500e-02 0.000000e+00
-1.680000e+00 1.282500e-01 0.000000e+00
-1.596000e+00 1.282500e-01 0.000000e+00
-1.512000e+00 1.282500e-01 0.000000e+00
-1.428000e+00 1.282500e-01 0.000000e+00
-1.344000e+00 1.282500e-01 0.000000e+00
-1.680000e+00 1.923750e-01 0.000000e+00
-1.596000e+00 1.923750e-01 0.000000e+00
-1.512000e+00 1.923750e-01 0.000000e+00
-1.428000e+00 1.923750e-01 0.000000e+00
-1.344000e+00 1.923750e-01 0.000000e+00
-1.680000e+00 2.565000e-01 0.000000e+00
-1.596000e+00 2.565000e-01 0.000000e+00
-1.512000e+00 2.565000e-01 0.000000e+00
-1.428000e+00 2.565000e-01 0.000000e+00
-1.344000e+00 2.565000e-01 0.000000e+00
-1.344000e+00 0.000000e+00 0.000000e+00
-1.260000e+00 0.000000e+00 0.000000e+00
-1.176000e+00 0.000000e+00 0.000000e+00
-1.092000e+00 0.000000e+00 0.000000e+00
-1.008000e+00 0.000000e+00 0.000000e+00
-1.344000e+00 6.412500e-02 0.000000e+00
-1.260000e+00 6.412500e-02 0.000000e+00
-1.176000e+00 6.412500e-02 0.000000e+00
-1.092000e+00 6.412500e-02 0.000000e+00
-1.008000e+00 6.412500e-02 0.000000e+00
-1.344000e+00 1.282500e-01 0.000000e+00
-1.260000e+00 1.282500e-01 0.000000e+00
-1.176000e+00 1.282500e-01 0.000000e+00
-1.092000e+00 1.282500e-01 0.000000e+00
-1.008000e+00 1.282500e-01 0.000000e+00
-1.344000e+00 1.923750e-01 0.000000e+00
-1.260000e+00 1.923750e-01 0.000000e+00
-1.176000e+00 1.923750e-01 0.000000e+00
-1.092000e+00 1.923750e-01 0.000000e+00
-1.008000e+00 1.923750e-01 0.000000e+00
-1.344000e+00 2.565000e-01 0.000000e+00
-1.260000e+00 2.565000e-01 0.000000e+00
-1.176000e+00 2.565000e-01 0.000000e+00
-1.092000e+00 2.565000e-01 0.000000e+00
-1.008000e+00 2.565000e-01 0.000000e+00
-1.008000e+00 0.000000e+00 0.000000e+00
-9.240000e-01 0.000000e+00 0.000000e+00
-8.400000e-01 0.000000e+00 0.000000e+00
-7.560000e-01 0.000000e+00 0.000000e+00
-6.720000e-01 0.000000e+00 0.000000e+00
-1.008000e+00 6.412500e-02 0.000000e+00
-9.240000e-01 6.412500e-02 0.000000e+00
-8.400000e-01 6.412500e-02 0.000000e+00
-7.560000e-01 6.412500e-02 0.000000e+00
-6.720000e-01 6.412500e-02 0.000000e+00
-1.008000e+00 1.282500e-01 0.000000e+00
-9.240000e-01 1.282500e-01 0.000000e+00
-8.400000e-01 1.282500e-01 0.000000e+00
-7.560000e-01 1.282500e-01 0.000000e+00
-6.720000e-01 1.282500e-01 0.000000e+00
-1.008000e+00 1.923750e-01 0.000000e+00
-9.240000e-01 1.923750e-01 0.000000e+00
-8.400000e-01 1.923750e-01 0.000000e+00
-7.560000e-01 1.923750e-01 0.000000e+00
-6.720000e-01 1.923750e-01 0.000000e+00
-1.008000e+00 2.565000e-01 0.000000e+00
-9.240000e-01 2.565000e-01 0.000000e+00
-8.400000e-01 2.565000e-01 0.000000e+00
-7.560000e-01 2.565000e-01 0.000000e+00
-6.720000e-01 2.565000e-01 0.000000e+00
-6.720000e-01 0.000000e+00 0.000000e+00
-5.880000e-01 0.000000e+00 0.000000e+00
-5.040000e-01 0.000000e+00 0.000000e+00
-4.200000e-01 0.000000e+00 0.000000e+00
-3.360000e-01 0.000000e+00 0.000000e+00
-6.720000e-01 6.412500e-02 0.000000e+00
-5.880000e-01 6.412500e-02 0.000000e+00
-5.040000e-01 6.412500e-02 0.000000e+00
-4.200000e-01 6.412500e-02 0.000000e+00
-3.360000e-01 6.412500e-02 0.000000e+00
-6.720000e-01 1.282500e-01 0.000000e+00
-5.880000e-01 1.282500e-01 0.000000e+00
-5.040000e-01 1.282500e-01 0.000000e+00
-4.200000e-01 1.282500e-01 0.000000e+00
-3.360000e-01 1.282500e-01 0.000000e+00
-6.720000e-01 1.923750e-01 0.000000e+00
-5.880000e-01 1.923750e-01 0.000000e+00
-5.040000e-01 1.923750e-01 0.000000e+00
-4.200000e-01 1.923750e-01 0.000000e+00
-3.360000e-01 1.923750e-01 0.000000e+00
-6.720000e-01 2.565000e-01 0.000000e+00
-5.880000e-01 2.565000e-01 0.000000e+00
-5.040000e-01 2.565000e-01 0.000000e+00
-4.200000e-01 2.565000e-01 0.000000e+00
-3.360000e-01 2.565000e-01 0.000000e+00
-3.360000e-01 0.000000e+00 0.000000e+00
-2.520000e-01 0.000000e+00 0.000000e+00
-1.680000e-01 0.000000e+00 0.000000e+00
-8.400000e-02 0.000000e+00 0.000000e+00
-4.440890e-16 0.000000e+00 0.000000e+00
-3.360000e-01 6.412500e-02 0.000000e+00
-2.520000e-01 6.412500e-02 0.000000e+00
-1.680000e-01 6.412500e-02 0.000000e+00
-8.400000e-02 6.412500e-02 0.000000e+00
-4.440890e-16 6.412500e-02 0.000000e+00
-3.360000e-01 1.282500e-01 0.000000e+00
-2.520000e-01 1.282500e-01 0.000000e+00
-1.680000e-01 1.282500e-01 0.000000e+00
-8.400000e-02 1.282500e-01 0.000000e+00
-4.440890e-16 1.282500e-01 0.000000e+00
-3.360000e-01 1.923750e-01 0.000000e+00
-2.520000e-01 1.923750e-01 0.000000e+00
-1.680000e-01 1.923750e-01 0.000000e+00
[...]
<PointData>
<DataArray type="Float32" Name="V1" format="ascii">
0.000000e+00
0.000000e+00
0.000000e+00
0.000000e+00
0.000000e+00
6.347820e-02
5.969000e-02
5.542420e-02
5.068080e-02
4.545970e-02
1.013490e-01
9.782170e-02
9.303420e-02
8.698610e-02
7.967730e-02
1.136110e-01
1.143950e-01
1.128300e-01
1.089160e-01
1.026530e-01
1.002660e-01
1.094100e-01
1.148120e-01
1.164700e-01
1.143860e-01
0.000000e+00
0.000000e+00
0.000000e+00
0.000000e+00
0.000000e+00
4.545970e-02
3.971660e-02
3.532310e-02
3.227920e-02
3.058500e-02
7.967730e-02
7.132620e-02
6.476140e-02
5.998280e-02
5.699060e-02
1.026530e-01
9.482880e-02
8.831490e-02
8.311090e-02
7.921670e-02
1.143860e-01
1.102240e-01
1.059840e-01
1.016630e-01
9.726350e-02
0.000000e+00
0.000000e+00
0.000000e+00
0.000000e+00
0.000000e+00
3.058500e-02
2.909980e-02
2.791150e-02
2.702010e-02
2.642550e-02
5.699060e-02
5.445610e-02
5.247290e-02
5.104100e-02
5.016040e-02
7.921670e-02
7.606880e-02
7.368430e-02
7.206290e-02
7.120490e-02
9.726350e-02
9.393810e-02
9.154550e-02
9.008580e-02
8.955900e-02
0.000000e+00
0.000000e+00
0.000000e+00
0.000000e+00
0.000000e+00
2.642550e-02
2.598050e-02
2.584280e-02
2.601230e-02
2.648910e-02
5.016040e-02
4.956370e-02
4.947630e-02
4.989830e-02
5.082970e-02
7.120490e-02
7.074940e-02
7.090040e-02
7.165780e-02
7.302170e-02
8.955900e-02
8.953790e-02
9.011520e-02
9.129090e-02
9.306510e-02
0.000000e+00
0.000000e+00
0.000000e+00
0.000000e+00
0.000000e+00
2.648910e-02
2.710960e-02
2.792600e-02
2.893840e-02
3.014670e-02
5.082970e-02
5.203450e-02
5.359930e-02
5.552390e-02
5.780840e-02
7.302170e-02
7.477480e-02
7.701970e-02
7.975650e-02
8.298520e-02
9.306510e-02
9.533030e-02
9.818740e-02
1.016360e-01
1.056770e-01
0.000000e+00
0.000000e+00
0.000000e+00
0.000000e+00
0.000000e+00
3.014670e-02
3.154580e-02
3.325790e-02
3.528310e-02
3.762130e-02
5.780840e-02
6.043320e-02
6.359870e-02
6.730500e-02
7.155190e-02
8.298520e-02
8.666230e-02
9.102240e-02
9.606560e-02
1.017920e-01
1.056770e-01
1.102330e-01
1.155290e-01
1.215650e-01
1.283410e-01
0.000000e+00
0.000000e+00
0.000000e+00
0.000000e+00
0.000000e+00
3.762130e-02
4.020940e-02
4.329150e-02
4.686760e-02
5.093760e-02
7.155190e-02
7.623660e-02
8.176030e-02
8.812290e-02
9.532460e-02
1.017920e-01
1.080810e-01
1.154060e-01
1.237660e-01
1.331610e-01
1.283410e-01
1.357440e-01
1.442290e-01
1.537970e-01
1.644470e-01
0.000000e+00
0.000000e+00
0.000000e+00
0.000000e+00
0.000000e+00
5.093760e-02
5.527770e-02
6.046790e-02
6.650830e-02
7.339890e-02
9.532460e-02
1.029870e-01
1.120590e-01
1.225400e-01
1.344310e-01
1.331610e-01
1.431290e-01
1.547740e-01
1.680960e-01
1.830960e-01
1.644470e-01
1.757020e-01
1.886120e-01
2.031760e-01
2.193940e-01
0.000000e+00
0.000000e+00
0.000000e+00
0.000000e+00
0.000000e+00
7.339890e-02
8.043700e-02
8.882260e-02
9.855570e-02
1.096360e-01
1.344310e-01
1.465800e-01
1.609180e-01
1.774430e-01
1.961580e-01
1.830960e-01
1.984290e-01
2.162850e-01
2.366630e-01
2.595650e-01
2.193940e-01
2.359840e-01
2.549250e-01
2.762160e-01
2.998570e-01
0.000000e+00
0.000000e+00
0.000000e+00
0.000000e+00
0.000000e+00
1.096360e-01
1.209260e-01
1.336230e-01
1.477250e-01
1.632330e-01
1.961580e-01
2.153200e-01
2.367310e-01
2.603910e-01
2.863010e-01
2.595650e-01
2.831810e-01
3.093250e-01
3.379990e-01
3.692020e-01
2.998570e-01
3.245080e-01
3.514050e-01
3.805480e-01
4.119370e-01
0.000000e+00
0.000000e+00
0.000000e+00
0.000000e+00
0.000000e+00
1.632330e-01
1.806230e-01
1.976500e-01
2.143130e-01
2.306130e-01
2.863010e-01
3.155280e-01
3.443000e-01
3.726170e-01
4.004790e-01
3.692020e-01
4.047130e-01
4.399490e-01
4.749100e-01
5.095960e-01
4.119370e-01
4.481790e-01
4.845970e-01
5.211940e-01
5.579670e-01
0.000000e+00
0.000000e+00
0.000000e+00
0.000000e+00
0.000000e+00
2.306130e-01
2.507720e-01
2.668700e-01
2.789070e-01
2.868830e-01
4.004790e-01
4.349650e-01
4.634510e-01
4.859360e-01
5.024190e-01
5.095960e-01
5.525810e-01
5.897440e-01
6.210870e-01
6.466090e-01
5.579670e-01
6.036180e-01
6.457490e-01
6.843610e-01
7.194520e-01
0.000000e+00
0.000000e+00
0.000000e+00
0.000000e+00
0.000000e+00
2.868830e-01
2.916170e-01
2.904190e-01
2.832890e-01
2.702260e-01
5.024190e-01
5.144110e-01
5.170320e-01
5.102820e-01
4.941600e-01
6.466090e-01
6.683820e-01
6.798380e-01
6.809780e-01
6.718020e-01
7.194520e-01
7.535290e-01
7.788380e-01
7.953790e-01
8.031520e-01
0.000000e+00
0.000000e+00
0.000000e+00
0.000000e+00
0.000000e+00
2.702260e-01
2.418340e-01
2.127990e-01
1.831210e-01
1.528000e-01
4.941600e-01
4.527500e-01
4.079710e-01
3.598230e-01
3.083070e-01
6.718020e-01
6.327490e-01
5.855170e-01
5.301080e-01
4.665210e-01
8.031520e-01
7.818300e-01
7.454370e-01
6.939740e-01
6.274420e-01
0.000000e+00
0.000000e+00
0.000000e+00
0.000000e+00
0.000000e+00
1.528000e-01
1.232250e-01
9.685660e-02
7.369540e-02
5.374120e-02
3.083070e-01
2.536350e-01
2.034020e-01
1.576090e-01
1.162550e-01
4.665210e-01
3.912300e-01
3.196370e-01
2.517400e-01
1.875410e-01
6.274420e-01
5.360110e-01
4.455600e-01
3.560900e-01
2.676000e-01
0.000000e+00
0.000000e+00
0.000000e+00
0.000000e+00
0.000000e+00
5.374120e-02
4.066280e-02
2.768730e-02
1.481470e-02
2.044960e-03
1.162550e-01
8.861610e-02
6.239560e-02
3.759330e-02
1.420940e-02
1.875410e-01
1.438600e-01
1.041250e-01
6.833600e-02
3.649340e-02
2.676000e-01
2.063940e-01
1.528750e-01
1.070430e-01
6.889680e-02
0.000000e+00
0.000000e+00
0.000000e+00
0.000000e+00
0.000000e+00
2.044960e-03
-6.145250e-03
-1.103170e-02
-1.261440e-02
-1.089330e-02
1.420940e-02
-9.416660e-04
-1.000700e-02
-1.298650e-02
-9.880310e-03
3.649340e-02
1.561080e-02
3.074180e-03
-1.116390e-03
3.039070e-03
6.889680e-02
4.351200e-02
2.821180e-02
2.299600e-02
2.786480e-02
0.000000e+00
0.000000e+00
0.000000e+00
0.000000e+00
0.000000e+00
-1.089330e-02
-1.028380e-02
-8.652210e-03
-5.998610e-03
-2.322980e-03
-9.880310e-03
-8.556730e-03
-5.679760e-03
-1.249390e-03
4.734380e-03
3.039070e-03
5.181160e-03
8.917360e-03
1.424770e-02
2.117210e-02
2.786480e-02
3.092990e-02
3.513910e-02
4.049250e-02
4.699010e-02
0.000000e+00
0.000000e+00
0.000000e+00
0.000000e+00
0.000000e+00
-2.322980e-03
3.276820e-05
1.929910e-03
3.368440e-03
4.348370e-03
4.734380e-03
8.517960e-03
1.147750e-02
1.361290e-02
1.492430e-02
2.117210e-02
2.545560e-02
2.864270e-02
3.073340e-02
3.172770e-02
4.699010e-02
5.084560e-02
5.342560e-02
5.472990e-02
5.475870e-02
0.000000e+00
0.000000e+00
0.000000e+00
0.000000e+00
0.000000e+00
4.348370e-03
5.510690e-03
5.297920e-03
3.710050e-03
7.470910e-04
1.492430e-02
1.634060e-02
1.579440e-02
1.328560e-02
8.814170e-03
3.172770e-02
3.248980e-02
3.148930e-02
2.872650e-02
2.420120e-02
5.475870e-02
5.395810e-02
5.238290e-02
5.003290e-02
4.690830e-02
1.002660e-01
1.094100e-01
1.148120e-01
1.164700e-01
1.143860e-01
9.945850e-02
1.078090e-01
1.137750e-01
1.173570e-01
1.185560e-01
9.848610e-02
1.058630e-01
1.119140e-01
1.166380e-01
1.200360e-01
9.734850e-02
1.035740e-01
1.092280e-01
1.143120e-01
1.188260e-01
9.604590e-02
1.009400e-01
1.057180e-01
1.103800e-01
1.149260e-01
1.143860e-01
1.102240e-01
1.059840e-01
1.016630e-01
9.726350e-02
1.185560e-01
1.172790e-01
1.153160e-01
1.126660e-01
1.093310e-01
1.200360e-01
1.209910e-01
1.208790e-01
1.197010e-01
1.174560e-01
1.188260e-01
1.213600e-01
1.226730e-01
1.227670e-01
1.216410e-01
1.149260e-01
1.183860e-01
1.206990e-01
1.218640e-01
1.218830e-01
9.726350e-02
9.393810e-02
9.154550e-02
9.008580e-02
8.955900e-02
1.093310e-01
1.065180e-01
1.045380e-01
1.033900e-01
1.030750e-01
1.174560e-01
1.152980e-01
1.138310e-01
1.130530e-01
1.129670e-01
1.216410e-01
1.202780e-01
1.194230e-01
1.190750e-01
1.192350e-01
1.218830e-01
1.214580e-01
1.213150e-01
1.214560e-01
1.218800e-01
8.955900e-02
8.953790e-02
9.011520e-02
9.129090e-02
9.306510e-02
1.030750e-01
1.033440e-01
1.042160e-01
1.056900e-01
1.077670e-01
1.129670e-01
1.134910e-01
1.146020e-01
1.162980e-01
1.185800e-01
1.192350e-01
1.199810e-01
1.212740e-01
1.231150e-01
1.255040e-01
1.218800e-01
1.228110e-01
1.242320e-01
1.261400e-01
1.285380e-01
9.306510e-02
9.533030e-02
9.818740e-02
1.016360e-01
1.056770e-01
1.077670e-01
1.103350e-01
1.135210e-01
1.173250e-01
1.217480e-01
1.185800e-01
1.213400e-01
1.247210e-01
1.287210e-01
1.333410e-01
1.255040e-01
1.283460e-01
1.317860e-01
1.358230e-01
1.404570e-01
1.285380e-01
1.313520e-01
1.347160e-01
1.386310e-01
1.430960e-01
1.056770e-01
1.102330e-01
1.155290e-01
1.215650e-01
1.283410e-01
1.217480e-01
1.266970e-01
1.323880e-01
1.388220e-01
1.459980e-01
1.333410e-01
1.384800e-01
1.443450e-01
1.509360e-01
1.582530e-01
1.404570e-01
1.455820e-01
1.513990e-01
1.579070e-01
1.651060e-01
1.430960e-01
1.480040e-01
1.535510e-01
1.597350e-01
1.665570e-01
1.283410e-01
1.357440e-01
1.442290e-01
1.537970e-01
1.644470e-01
1.459980e-01
1.537550e-01
1.625700e-01
1.724440e-01
1.833770e-01
1.582530e-01
1.660980e-01
1.749600e-01
1.848420e-01
1.957410e-01
1.651060e-01
1.727720e-01
1.814000e-01
1.909890e-01
2.015400e-01
1.665570e-01
1.737790e-01
1.818890e-01
1.908870e-01
2.007730e-01
1.644470e-01
1.757020e-01
1.886120e-01
2.031760e-01
2.193940e-01
1.833770e-01
1.947890e-01
2.078140e-01
2.224530e-01
2.387060e-01
1.957410e-01
2.070060e-01
2.198340e-01
2.342250e-01
2.501800e-01
2.015400e-01
2.123530e-01
2.246710e-01
2.384920e-01
2.538170e-01
2.007730e-01
2.108310e-01
2.223240e-01
2.352530e-01
2.496170e-01
2.193940e-01
2.359840e-01
2.549250e-01
2.762160e-01
2.998570e-01
2.387060e-01
2.550700e-01
2.738050e-01
2.949130e-01
3.183920e-01
2.501800e-01
2.660050e-01
2.842330e-01
3.048660e-01
3.279020e-01
2.538170e-01
2.687900e-01
2.862090e-01
3.060750e-01
3.283870e-01
2.496170e-01
2.634250e-01
2.797330e-01
2.985410e-01
3.198480e-01
2.998570e-01
3.245080e-01
3.514050e-01
3.805480e-01
4.119370e-01
3.183920e-01
3.424880e-01
3.690850e-01
3.981820e-01
4.297810e-01
3.279020e-01
3.511280e-01
3.771270e-01
4.058970e-01
4.374390e-01
3.283870e-01
3.504290e-01
3.755300e-01
4.036910e-01
4.349110e-01
3.198480e-01
3.403900e-01
3.642950e-01
3.915640e-01
4.221960e-01
4.119370e-01
4.481790e-01
4.845970e-01
5.211940e-01
5.579670e-01
4.297810e-01
4.662190e-01
5.032830e-01
5.409730e-01
5.792880e-01
4.374390e-01
4.737240e-01
5.110520e-01
5.494230e-01
5.888360e-01
4.349110e-01
4.706940e-01
5.079060e-01
5.465440e-01
5.866100e-01
4.221960e-01
4.571290e-01
4.938430e-01
5.323370e-01
5.726120e-01
5.579670e-01
6.036180e-01
6.457490e-01
6.843610e-01
7.194520e-01
5.792880e-01
6.282090e-01
6.739590e-01
7.165380e-01
7.559440e-01
5.888360e-01
6.407310e-01
6.897010e-01
7.357470e-01
7.788680e-01
5.866100e-01
6.411820e-01
6.929750e-01
7.419890e-01
7.882240e-01
5.726120e-01
6.295630e-01
6.837800e-01
7.352630e-01
7.840120e-01
7.194520e-01
7.535290e-01
7.788380e-01
7.953790e-01
8.031520e-01
7.559440e-01
7.978100e-01
8.315860e-01
8.572710e-01
8.748640e-01
7.788680e-01
8.277500e-01
8.688960e-01
9.023050e-01
9.279790e-01
7.882240e-01
8.433470e-01
8.907670e-01
9.304830e-01
9.624950e-01
7.840120e-01
8.446030e-01
8.972000e-01
9.418040e-01
9.784140e-01
8.031520e-01
7.818300e-01
7.454370e-01
6.939740e-01
6.274420e-01
8.748640e-01
8.673580e-01
8.456000e-01
8.095910e-01
7.593300e-01
9.279790e-01
9.307750e-01
9.206020e-01
8.974570e-01
8.613420e-01
9.624950e-01
9.720810e-01
9.704400e-01
9.575720e-01
9.334770e-01
9.784140e-01
9.912760e-01
9.951170e-01
9.899370e-01
9.757360e-01
6.274420e-01
5.360110e-01
4.455600e-01
3.560900e-01
2.676000e-01
7.593300e-01
6.709010e-01
5.759020e-01
4.743350e-01
3.661990e-01
8.613420e-01
7.808120e-01
6.876650e-01
5.818990e-01
4.635160e-01
9.334770e-01
8.657460e-01
7.808470e-01
6.787820e-01
5.595490e-01
9.757360e-01
9.257010e-01
8.554500e-01
7.649830e-01
6.542990e-01
2.676000e-01
2.063940e-01
1.528750e-01
1.070430e-01
6.889680e-02
3.661990e-01
2.872170e-01
2.185440e-01
1.601790e-01
1.121240e-01
4.635160e-01
3.708810e-01
2.894490e-01
2.192200e-01
1.601940e-01
5.595490e-01
4.573860e-01
3.655920e-01
2.841650e-01
2.131080e-01
6.542990e-01
5.467320e-01
4.469700e-01
3.550150e-01
2.708640e-01
6.889680e-02
4.351200e-02
2.821180e-02
2.299600e-02
2.786480e-02
1.121240e-01
7.933410e-02
5.866440e-02
5.011480e-02
5.368540e-02
1.601940e-01
1.193480e-01
9.243440e-02
7.945350e-02
8.040520e-02
2.131080e-01
1.635540e-01
1.295220e-01
1.110120e-01
1.080240e-01
2.708640e-01
2.119510e-01
1.699270e-01
1.447910e-01
1.365430e-01
2.786480e-02
3.092990e-02
3.513910e-02
4.049250e-02
4.699010e-02
5.368540e-02
5.625460e-02
5.997030e-02
6.483230e-02
7.084070e-02
8.040520e-02
8.135370e-02
8.370820e-02
8.746880e-02
9.263540e-02
1.080240e-01
1.062270e-01
1.063530e-01
1.084020e-01
1.123740e-01
1.365430e-01
1.308750e-01
1.279040e-01
1.276320e-01
1.300570e-01
4.699010e-02
5.084560e-02
5.342560e-02
5.472990e-02
5.475870e-02
7.084070e-02
7.393060e-02
7.562480e-02
7.592320e-02
7.482590e-02
9.263540e-02
9.479050e-02
9.548160e-02
9.470880e-02
9.247200e-02
1.123740e-01
1.134250e-01
1.129960e-01
1.110870e-01
1.076970e-01
1.300570e-01
1.298350e-01
1.281680e-01
1.250570e-01
1.205010e-01
5.475870e-02
5.395810e-02
5.238290e-02
5.003290e-02
4.690830e-02
7.482590e-02
7.336320e-02
7.119490e-02
6.832120e-02
6.474210e-02
9.247200e-02
9.029540e-02
8.751390e-02
8.412740e-02
8.013590e-02
1.076970e-01
1.047550e-01
1.013400e-01
9.745120e-02
9.308980e-02
1.205010e-01
1.167420e-01
1.126720e-01
1.082930e-01
1.036040e-01
9.604590e-02
1.009400e-01
1.057180e-01
1.103800e-01
1.149260e-01
9.458900e-02
9.896230e-02
1.032750e-01
1.075270e-01
1.117190e-01
9.299440e-02
9.698490e-02
1.009020e-01
1.047460e-01
1.085160e-01
9.126190e-02
9.500760e-02
9.859850e-02
1.020350e-01
1.053160e-01
8.939170e-02
9.303040e-02
9.636470e-02
9.939450e-02
1.021200e-01
1.149260e-01
1.183860e-01
1.206990e-01
1.218640e-01
1.218830e-01
1.117190e-01
1.151910e-01
1.177560e-01
1.194160e-01
1.201690e-01
1.085160e-01
1.118370e-01
1.144790e-01
1.164410e-01
1.177230e-01
1.053160e-01
1.083250e-01
1.108660e-01
1.129390e-01
1.145440e-01
1.021200e-01
1.046540e-01
1.069180e-01
1.089110e-01
1.106330e-01
1.218830e-01
1.214580e-01
1.213150e-01
1.214560e-01
1.218800e-01
1.201690e-01
1.204310e-01
1.208510e-01
1.214290e-01
1.221640e-01
1.177230e-01
1.185260e-01
1.193990e-01
1.203410e-01
1.213530e-01
1.145440e-01
1.157430e-01
1.169600e-01
1.181930e-01
1.194440e-01
1.106330e-01
1.120820e-01
1.135320e-01
1.149850e-01
1.164390e-01
1.218800e-01
1.228110e-01
1.242320e-01
1.261400e-01
1.285380e-01
1.221640e-01
1.232940e-01
1.248480e-01
1.268250e-01
1.292260e-01
1.213530e-01
1.226630e-01
1.243360e-01
1.263720e-01
1.287720e-01
1.194440e-01
1.209170e-01
1.226960e-01
1.247820e-01
1.271740e-01
1.164390e-01
1.180570e-01
1.199280e-01
1.220540e-01
1.244330e-01
1.285380e-01
1.313520e-01
1.347160e-01
1.386310e-01
1.430960e-01
1.292260e-01
1.320060e-01
1.352940e-01
1.390910e-01
1.433960e-01
1.287720e-01
1.315110e-01
1.347170e-01
1.383900e-01
1.425310e-01
1.271740e-01
1.298670e-01
1.329850e-01
1.365300e-01
1.405000e-01
1.244330e-01
1.270740e-01
1.300990e-01
1.335090e-01
1.373030e-01
1.430960e-01
1.480040e-01
1.535510e-01
1.597350e-01
1.665570e-01
1.433960e-01
1.480980e-01
1.534030e-01
1.593110e-01
1.658220e-01
1.425310e-01
1.470220e-01
1.520810e-01
1.577080e-01
1.639010e-01
1.405000e-01
1.447760e-01
1.495840e-01
1.549240e-01
1.607960e-01
1.373030e-01
1.413590e-01
1.459110e-01
1.509610e-01
1.565070e-01
1.665570e-01
1.737790e-01
1.818890e-01
1.908870e-01
2.007730e-01
1.658220e-01
1.726760e-01
1.803800e-01
1.889320e-01
1.983330e-01
1.639010e-01
1.703840e-01
1.776750e-01
1.857730e-01
1.946780e-01
1.607960e-01
1.669040e-01
1.737750e-01
1.814090e-01
1.898080e-01
1.565070e-01
1.622340e-01
1.686790e-01
1.758420e-01
1.837220e-01
2.007730e-01
2.108310e-01
2.223240e-01
2.352530e-01
2.496170e-01
1.983330e-01
2.078380e-01
2.187460e-01
2.310580e-01
2.447730e-01
1.946780e-01
2.036170e-01
2.139140e-01
2.255680e-01
2.385790e-01
1.898080e-01
1.981680e-01
2.078260e-01
2.187820e-01
2.310360e-01
1.837220e-01
1.914900e-01
2.004830e-01
2.107010e-01
2.221450e-01
2.496170e-01
2.634250e-01
2.797330e-01
2.985410e-01
3.198480e-01
2.447730e-01
2.577370e-01
2.732860e-01
2.914200e-01
3.121400e-01
2.385790e-01
2.506540e-01
2.653520e-01
2.826710e-01
3.026130e-01
2.310360e-01
2.421790e-01
2.559310e-01
2.722940e-01
2.912660e-01
2.221450e-01
2.323100e-01
2.450240e-01
2.602870e-01
2.780990e-01
3.198480e-01
3.403900e-01
3.642950e-01
3.915640e-01
4.221960e-01
3.121400e-01
3.314040e-01
3.543960e-01
3.811170e-01
4.115660e-01
3.026130e-01
3.203110e-01
3.421030e-01
3.679870e-01
3.979650e-01
2.912660e-01
3.071130e-01
3.274160e-01
3.521760e-01
3.813930e-01
2.780990e-01
2.918080e-01
3.103360e-01
3.336830e-01
3.618500e-01
4.221960e-01
4.571290e-01
4.938430e-01
5.323370e-01
5.726120e-01
4.115660e-01
4.456140e-01
4.817940e-01
5.201080e-01
5.605540e-01
3.979650e-01
4.304190e-01
4.653280e-01
5.026930e-01
5.425120e-01
3.813930e-01
4.115450e-01
4.444450e-01
4.800930e-01
5.184880e-01
3.618500e-01
3.889920e-01
4.191440e-01
4.523070e-01
4.884810e-01
5.726120e-01
6.295630e-01
6.837800e-01
7.352630e-01
7.840120e-01
5.605540e-01
6.202000e-01
6.766610e-01
7.299350e-01
7.800230e-01
5.425120e-01
6.038480e-01
6.612060e-01
7.145850e-01
7.639860e-01
5.184880e-01
5.805080e-01
6.374170e-01
6.892140e-01
7.359010e-01
4.884810e-01
5.501790e-01
6.052930e-01
6.538230e-01
6.957690e-01
7.840120e-01
8.446030e-01
8.972000e-01
9.418040e-01
9.784140e-01
7.800230e-01
8.465560e-01
9.043050e-01
9.532690e-01
9.934470e-01
7.639860e-01
8.347240e-01
8.961670e-01
9.483130e-01
9.911630e-01
7.359010e-01
8.091070e-01
8.727860e-01
9.269380e-01
9.715640e-01
6.957690e-01
7.697050e-01
8.341630e-01
8.891440e-01
9.346470e-01
9.784140e-01
9.912760e-01
9.951170e-01
9.899370e-01
9.757360e-01
9.934470e-01
1.009170e+00
1.016010e+00
1.013960e+00
1.003020e+00
9.911630e-01
1.009290e+00
1.019250e+00
1.021040e+00
1.014650e+00
9.715640e-01
9.916430e-01
1.004840e+00
1.011170e+00
1.010610e+00
9.346470e-01
9.562210e-01
9.727880e-01
9.843490e-01
9.909040e-01
9.757360e-01
9.257010e-01
8.554500e-01
7.649830e-01
6.542990e-01
1.003020e+00
9.588310e-01
8.975840e-01
8.192830e-01
7.239270e-01
1.014650e+00
9.745510e-01
9.210970e-01
8.542870e-01
7.741210e-01
1.010610e+00
9.728590e-01
9.259880e-01
8.699950e-01
8.048800e-01
9.909040e-01
9.537570e-01
9.122580e-01
8.664070e-01
8.162050e-01
6.542990e-01
5.467320e-01
4.469700e-01
3.550150e-01
2.708640e-01
7.239270e-01
6.179030e-01
5.161800e-01
4.187570e-01
3.256350e-01
7.741210e-01
6.734080e-01
5.732310e-01
4.735890e-01
3.744830e-01
8.048800e-01
7.132460e-01
6.181220e-01
5.195100e-01
4.174090e-01
8.162050e-01
7.374170e-01
6.508550e-01
5.565200e-01
4.544110e-01
2.708640e-01
2.119510e-01
1.699270e-01
1.447910e-01
1.365430e-01
3.256350e-01
2.617870e-01
2.140060e-01
1.822900e-01
1.666410e-01
3.744830e-01
3.077790e-01
2.558730e-01
2.187640e-01
1.964530e-01
4.174090e-01
3.499270e-01
2.955290e-01
2.542130e-01
2.259790e-01
4.544110e-01
3.882320e-01
3.329730e-01
2.886360e-01
2.552190e-01
1.365430e-01
1.308750e-01
1.279040e-01
1.276320e-01
1.300570e-01
1.666410e-01
1.554120e-01
1.481040e-01
1.447170e-01
1.452520e-01
1.964530e-01
1.795870e-01
1.677230e-01
1.608600e-01
1.590000e-01
2.259790e-01
2.034000e-01
1.867610e-01
1.760620e-01
1.713030e-01
2.552190e-01
2.268510e-01
2.052180e-01
1.903210e-01
1.821600e-01
1.300570e-01
1.298350e-01
1.281680e-01
1.250570e-01
1.205010e-01
1.452520e-01
1.439020e-01
1.410550e-01
1.367110e-01
1.308700e-01
1.590000e-01
1.563420e-01
1.522190e-01
1.466340e-01
1.395850e-01
1.713030e-01
1.671550e-01
1.616630e-01
1.548260e-01
1.466450e-01
1.821600e-01
1.763420e-01
1.693840e-01
1.612870e-01
1.520500e-01
1.205010e-01
1.167420e-01
1.126720e-01
1.082930e-01
1.036040e-01
1.308700e-01
1.260920e-01
1.213200e-01
1.165540e-01
1.117930e-01
1.395850e-01
1.338220e-01
1.283840e-01
1.232700e-01
1.184800e-01
1.466450e-01
1.399320e-01
1.338640e-01
1.284410e-01
1.236630e-01
1.520500e-01
1.444200e-01
1.377590e-01
1.320670e-01
1.273430e-01
8.939170e-02
9.303040e-02
9.636470e-02
9.939450e-02
1.021200e-01
8.740010e-02
9.077790e-02
9.383690e-02
9.657700e-02
9.899830e-02
8.530680e-02
8.842160e-02
9.121630e-02
9.369090e-02
9.584540e-02
8.311190e-02
8.596150e-02
8.850290e-02
9.073610e-02
9.266100e-02
8.081530e-02
8.339760e-02
8.569670e-02
8.771260e-02
8.944530e-02
1.021200e-01
1.046540e-01
1.069180e-01
1.089110e-01
1.106330e-01
9.899830e-02
1.011900e-01