<?xml version="1.0"?>
<VTKFile type="UnstructuredGrid" version="0.1" byte_order="LittleEndian" compressor="vtkZLibDataCompressor">
<UnstructuredGrid>
<Piece NumberOfPoints="10000" NumberOfCells="6400">
<Points>
<DataArray type="Float32" NumberOfComponents="3" format="ascii">
-3.360000e+00 0.000000e+00 0.000000e+00
-3.276000e+00 0.000000e+00 0.000000e+00
-3.192000e+00 0.000000e+00 0.000000e+00
-3.108000e+00 0.000000e+00 0.000000e+00
-3.024000e+00 0.000000e+00 0.000000e+00
-3.360000e+00 6.412500e-02 0.000000e+00
-3.276000e+00 6.412500e-02 0.000000e+00
-3.192000e+00 6.412500e-02 0.000000e+00
-3.108000e+00 6.412500e-02 0.000000e+00
-3.024000e+00 6.412500e-02 0.000000e+00
-3.360000e+00 1.282500e-01 0.000000e+00
-3.276000e+00 1.282500e-01 0.000000e+00
-3.192000e+00 1.282500e-01 0.000000e+00
-3.108000e+00 1.282500e-01 0.000000e+00
-3.024000e+00 1.282500e-01 0.000000e+00
-3.360000e+00 1.923750e-01 0.000000e+00
-3.276000e+00 1.923750e-01 0.000000e+00
-3.192000e+00 1.923750e-01 0.000000e+00
-3.108000e+00 1.923750e-01 0.000000e+00
-3.024000e+00 1.923750e-01 0.000000e+00
-3.360000e+00 2.565000e-01 0.000000e+00
-3.276000e+00 2.565000e-01 0.000000e+00
-3.192000e+00 2.565000e-01 0.000000e+00
-3.108000e+00 2.565000e-01 0.000000e+00
-3.024000e+00 2.565000e-01 0.000000e+00
-3.024000e+00 0.000000e+00 0.000000e+00
-2.940000e+00 0.000000e+00 0.000000e+00
-2.856000e+00 0.000000e+00 0.000000e+00
-2.772000e+00 0.000000e+00 0.000000e+00
-2.688000e+00 0.000000e+00 0.000000e+00
-3.024000e+00 6.412500e-02 0.000000e+00
-2.940000e+00 6.412500e-02 0.000000e+00
-2.856000e+00 6.412500e-02 0.000000e+00
-2.772000e+00 6.412500e-02 0.000000e+00
-2.688000e+00 6.412500e-02 0.000000e+00
-3.024000e+00 1.282500e-01 0.000000e+00
-2.940000e+00 1.282500e-01 0.000000e+00
-2.856000e+00 1.282500e-01 0.000000e+00
-2.772000e+00 1.282500e-01 0.000000e+00
-2.688000e+00 1.282500e-01 0.000000e+00
-3.024000e+00 1.923750e-01 0.000000e+00
-2.940000e+00 1.923750e-01 0.000000e+00
-2.856000e+00 1.923750e-01 0.000000e+00
-2.772000e+00 1.923750e-01 0.000000e+00
-2.688000e+00 1.923750e-01 0.000000e+00
-3.024000e+00 2.565000e-01 0.000000e+00
-2.940000e+00 2.565000e-01 0.000000e+00
-2.856000e+00 2.565000e-01 0.000000e+00
-2.772000e+00 2.565000e-01 0.000000e+00
-2.688000e+00 2.565000e-01 0.000000e+00
-2.688000e+00 0.000000e+00 0.000000e+00
-2.604000e+00 0.000000e+00 0.000000e+00
-2.520000e+00 0.000000e+00 0.000000e+00
-2.436000e+00 0.000000e+00 0.000000e+00
-2.352000e+00 0.000000e+00 0.000000e+00
-2.688000e+00 6.412500e-02 0.000000e+00
-2.604000e+00 6.412500e-02 0.000000e+00
-2.520000e+00 6.412500e-02 0.000000e+00
-2.436000e+00 6.412500e-02 0.000000e+00
-2.352000e+00 6.412500e-02 0.000000e+00
-2.688000e+00 1.282500e-01 0.000000e+00
-2.604000e+00 1.282500e-01 0.000000e+00
-2.520000e+00 1.282500e-01 0.000000e+00
-2.436000e+00 1.282500e-01 0.000000e+00
-2.352000e+00 1.282500e-01 0.000000e+00
-2.688000e+00 1.923750e-01 0.000000e+00
-2.604000e+00 1.923750e-01 0.000000e+00
-2.520000e+00 1.923750e-01 0.000000e+00
-2.436000e+00 1.923750e-01 0.000000e+00
-2.352000e+00 1.923750e-01 0.000000e+00
-2.688000e+00 2.565000e-01 0.000000e+00
-2.604000e+00 2.565000e-01 0.000000e+00
-2.520000e+00 2.565000e-01 0.000000e+00
-2.436000e+00 2.565000e-01 0.000000e+00
-2.352000e+00 2.565000e-01 0.000000e+00
-2.352000e+00 0.000000e+00 0.000000e+00
-2.268000e+00 0.000000e+00 0.000000e+00
-2.184000e+00 0.000000e+00 0.000000e+00
-2.100000e+00 0.000000e+00 0.000000e+00
-2.016000e+00 0.000000e+00 0.000000e+00
-2.352000e+00 6.412500e-02 0.000000e+00
-2.268000e+00 6.412500e-02 0.000000e+00
-2.184000e+00 6.412500e-02 0.000000e+00
-2.100000e+00 6.412500e-02 0.000000e+00
-2.016000e+00 6.412500e-02 0.000000e+00
-2.352000e+00 1.282500e-01 0.000000e+00
-2.268000e+00 1.282500e-01 0.000000e+00
-2.184000e+00 1.282500e-01 0.000000e+00
-2.100000e+00 1.282500e-01 0.000000e+00
-2.016000e+00 1.282500e-01 0.000000e+00
-2.352000e+00 1.923750e-01 0.000000e+00
-2.268000e+00 1.923750e-01 0.000000e+00
-2.184000e+00 1.923750e-01 0.000000e+00
-2.100000e+00 1.923750e-01 0.000000e+00
-2.016000e+00 1.923750e-01 0.000000e+00
-2.352000e+00 2.565000e-01 0.000000e+00
-2.268000e+00 2.565000e-01 0.000000e+00
-2.184000e+00 2.565000e-01 0.000000e+00
-2.100000e+00 2.565000e-01 0.000000e+00
-2.016000e+00 2.565000e-01 0.000000e+00
-2.016000e+00 0.000000e+00 0.000000e+00
-1.932000e+00 0.000000e+00 0.000000e+00
-1.848000e+00 0.000000e+00 0.000000e+00
-1.764000e+00 0.000000e+00 0.000000e+00
-1.680000e+00 0.000000e+00 0.000000e+00
-2.016000e+00 6.412500e-02 0.000000e+00
-1.932000e+00 6.412500e-02 0.000000e+00
-1.848000e+00 6.412500e-02 0.000000e+00
-1.764000e+00 6.412500e-02 0.000000e+00
-1.680000e+00 6.412500e-02 0.000000e+00
-2.016000e+00 1.282500e-01 0.000000e+00
-1.932000e+00 1.282500e-01 0.000000e+00
-1.848000e+00 1.282500e-01 0.000000e+00
-1.764000e+00 1.282500e-01 0.000000e+00
-1.680000e+00 1.282500e-01 0.000000e+00
-2.016000e+00 1.923750e-01 0.000000e+00
-1.932000e+00 1.923750e-01 0.000000e+00
-1.848000e+00 1.923750e-01 0.000000e+00
-1.764000e+00 1.923750e-01 0.000000e+00
-1.680000e+00 1.923750e-01 0.000000e+00
-2.016000e+00 2.565000e-01 0.000000e+00
-1.932000e+00 2.565000e-01 0.000000e+00
-1.848000e+00 2.565000e-01 0.000000e+00
-1.764000e+00 2.565000e-01 0.000000e+00
-1.680000e+00 2.565000e-01 0.000000e+00
-1.680000e+00 0.000000e+00 0.000000e+00
-1.596000e+00 0.000000e+00 0.000000e+00
-1.512000e+00 0.000000e+00 0.000000e+00
-1.428000e+00 0.000000e+00 0.000000e+00
-1.344000e+00 0.000000e+00 0.000000e+00
-1.680000e+00 6.412500e-02 0.000000e+00
-1.596000e+00 6.412500e-02 0.000000e+00
-1.512000e+00 6.412500e-02 0.000000e+00
-1.428000e+00 6.412500e-02 0.000000e+00
-1.344000e+00 6.412500e-02 0.000000e+00
-1.680000e+00 1.282500e-01 0.000000e+00
-1.596000e+00 1.282500e-01 0.000000e+00
-1.512000e+00 1.282500e-01 0.000000e+00
-1.428000e+00 1.282500e-01 0.000000e+00
-1.344000e+00 1.282500e-01 0.000000e+00
-1.680000e+00 1.923750e-01 0.000000e+00
-1.596000e+00 1.923750e-01 0.000000e+00
-1.512000e+00 1.923750e-01 0.000000e+00
-1.428000e+00 1.923750e-01 0.000000e+00
-1.344000e+00 1.923750e-01 0.000000e+00
-1.680000e+00 2.565000e-01 0.000000e+00
-1.596000e+00 2.565000e-01 0.000000e+00
-1.512000e+00 2.565000e-01 0.000000e+00
-1.428000e+00 2.565000e-01 0.000000e+00
-1.344000e+00 2.565000e-01 0.000000e+00
-1.344000e+00 0.000000e+00 0.000000e+00
-1.260000e+00 0.000000e+00 0.000000e+00
-1.176000e+00 0.000000e+00 0.000000e+00
-1.092000e+00 0.000000e+00 0.000000e+00
-1.008000e+00 0.000000e+00 0.000000e+00
-1.344000e+00 6.412500e-02 0.000000e+00
-1.260000e+00 6.412500e-02 0.000000e+00
-1.176000e+00 6.412500e-02 0.000000e+00
-1.092000e+00 6.412500e-02 0.000000e+00
-1.008000e+00 6.412500e-02 0.000000e+00
-1.344000e+00 1.282500e-01 0.000000e+00
-1.260000e+00 1.282500e-01 0.000000e+00
-1.176000e+00 1.282500e-01 0.000000e+00
-1.092000e+00 1.282500e-01 0.000000e+00
-1.008000e+00 1.282500e-01 0.000000e+00
-1.344000e+00 1.923750e-01 0.000000e+00
-1.260000e+00 1.923750e-01 0.000000e+00
-1.176000e+00 1.923750e-01 0.000000e+00
-1.092000e+00 1.923750e-01 0.000000e+00
-1.008000e+00 1.923750e-01 0.000000e+00
-1.344000e+00 2.565000e-01 0.000000e+00
-1.260000e+00 2.565000e-01 0.000000e+00
-1.176000e+00 2.565000e-01 0.000000e+00
-1.092000e+00 2.565000e-01 0.000000e+00
-1.008000e+00 2.565000e-01 0.000000e+00
-1.008000e+00 0.000000e+00 0.000000e+00
-9.240000e-01 0.000000e+00 0.000000e+00
-8.400000e-01 0.000000e+00 0.000000e+00
-7.560000e-01 0.000000e+00 0.000000e+00
-6.720000e-01 0.000000e+00 0.000000e+00
-1.008000e+00 6.412500e-02 0.000000e+00
-9.240000e-01 6.412500e-02 0.000000e+00
-8.400000e-01 6.412500e-02 0.000000e+00
-7.560000e-01 6.412500e-02 0.000000e+00
-6.720000e-01 6.412500e-02 0.000000e+00
-1.008000e+00 1.282500e-01 0.000000e+00
-9.240000e-01 1.282500e-01 0.000000e+00
-8.400000e-01 1.282500e-01 0.000000e+00
-7.560000e-01 1.282500e-01 0.000000e+00
-6.720000e-01 1.282500e-01 0.000000e+00
-1.008000e+00 1.923750e-01 0.000000e+00
-9.240000e-01 1.923750e-01 0.000000e+00
-8.400000e-01 1.923750e-01 0.000000e+00
-7.560000e-01 1.923750e-01 0.000000e+00
-6.720000e-01 1.923750e-01 0.000000e+00
-1.008000e+00 2.565000e-01 0.000000e+00
-9.240000e-01 2.565000e-01 0.000000e+00
-8.400000e-01 2.565000e-01 0.000000e+00
-7.560000e-01 2.565000e-01 0.000000e+00
-6.720000e-01 2.565000e-01 0.000000e+00
-6.720000e-01 0.000000e+00 0.000000e+00
-5.880000e-01 0.000000e+00 0.000000e+00
-5.040000e-01 0.000000e+00 0.000000e+00
-4.200000e-01 0.000000e+00 0.000000e+00
-3.360000e-01 0.000000e+00 0.000000e+00
-6.720000e-01 6.412500e-02 0.000000e+00
-5.880000e-01 6.412500e-02 0.000000e+00
-5.040000e-01 6.412500e-02 0.000000e+00
-4.200000e-01 6.412500e-02 0.000000e+00
-3.360000e-01 6.412500e-02 0.000000e+00
-6.720000e-01 1.282500e-01 0.000000e+00
-5.880000e-01 1.282500e-01 0.000000e+00
-5.040000e-01 1.282500e-01 0.000000e+00
-4.200000e-01 1.282500e-01 0.000000e+00
-3.360000e-01 1.282500e-01 0.000000e+00
-6.720000e-01 1.923750e-01 0.000000e+00
-5.880000e-01 1.923750e-01 0.000000e+00
-5.040000e-01 1.923750e-01 0.000000e+00
-4.200000e-01 1.923750e-01 0.000000e+00
-3.360000e-01 1.923750e-01 0.000000e+00
-6.720000e-01 2.565000e-01 0.000000e+00
-5.880000e-01 2.565000e-01 0.000000e+00
-5.040000e-01 2.565000e-01 0.000000e+00
-4.200000e-01 2.565000e-01 0.000000e+00
-3.360000e-01 2.565000e-01 0.000000e+00
-3.360000e-01 0.000000e+00 0.000000e+00
-2.520000e-01 0.000000e+00 0.000000e+00
-1.680000e-01 0.000000e+00 0.000000e+00
-8.400000e-02 0.000000e+00 0.000000e+00
-4.440890e-16 0.000000e+00 0.000000e+00
-3.360000e-01 6.412500e-02 0.000000e+00
-2.520000e-01 6.412500e-02 0.000000e+00
-1.680000e-01 6.412500e-02 0.000000e+00
-8.400000e-02 6.412500e-02 0.000000e+00
-4.440890e-16 6.412500e-02 0.000000e+00
-3.360000e-01 1.282500e-01 0.000000e+00
-2.520000e-01 1.282500e-01 0.000000e+00
-1.680000e-01 1.282500e-01 0.000000e+00
-8.400000e-02 1.282500e-01 0.000000e+00
-4.440890e-16 1.282500e-01 0.000000e+00
-3.360000e-01 1.923750e-01 0.000000e+00
-2.520000e-01 1.923750e-01 0.000000e+00
-1.680000e-01 1.923750e-01 0.000000e+00
[...]
<PointData>
<DataArray type="Float32" Name="V1" format="ascii">
0.000000e+00
0.000000e+00
0.000000e+00
0.000000e+00
0.000000e+00
6.347820e-02
5.981020e-02
5.636610e-02
5.314570e-02
5.014900e-02
1.013490e-01
9.796910e-02
9.444120e-02
9.076480e-02
8.693990e-02
1.136110e-01
1.144770e-01
1.142250e-01
1.128570e-01
1.103720e-01
1.002660e-01
1.093330e-01
1.157190e-01
1.194230e-01
1.204470e-01
0.000000e+00
0.000000e+00
0.000000e+00
0.000000e+00
0.000000e+00
5.014900e-02
4.720970e-02
4.573220e-02
4.571630e-02
4.716220e-02
8.693990e-02
8.316250e-02
8.144480e-02
8.178700e-02
8.418900e-02
1.103720e-01
1.078580e-01
1.071380e-01
1.082120e-01
1.110800e-01
1.204470e-01
1.212970e-01
1.228120e-01
1.249920e-01
1.278370e-01
0.000000e+00
0.000000e+00
0.000000e+00
0.000000e+00
0.000000e+00
4.716220e-02
4.864150e-02
5.033850e-02
5.225320e-02
5.438550e-02
8.418900e-02
8.677670e-02
8.979570e-02
9.324600e-02
9.712770e-02
1.110800e-01
1.144060e-01
1.183720e-01
1.229780e-01
1.282260e-01
1.278370e-01
1.315280e-01
1.360660e-01
1.414510e-01
1.476820e-01
0.000000e+00
0.000000e+00
0.000000e+00
0.000000e+00
0.000000e+00
5.438550e-02
5.664820e-02
5.945810e-02
6.281540e-02
6.672000e-02
9.712770e-02
1.012490e-01
1.062600e-01
1.121600e-01
1.189500e-01
1.282260e-01
1.338030e-01
1.404060e-01
1.480350e-01
1.566890e-01
1.476820e-01
1.543100e-01
1.618960e-01
1.704390e-01
1.799380e-01
0.000000e+00
0.000000e+00
0.000000e+00
0.000000e+00
0.000000e+00
6.672000e-02
7.081290e-02
7.570860e-02
8.140700e-02
8.790830e-02
1.189500e-01
1.260580e-01
1.345060e-01
1.442920e-01
1.554180e-01
1.566890e-01
1.657360e-01
1.763920e-01
1.886560e-01
2.025290e-01
1.799380e-01
1.898470e-01
2.013670e-01
2.144980e-01
2.292420e-01
0.000000e+00
0.000000e+00
0.000000e+00
0.000000e+00
0.000000e+00
8.790830e-02
9.426150e-02
1.022460e-01
1.118630e-01
1.231120e-01
1.554180e-01
1.662860e-01
1.798000e-01
1.959600e-01
2.147650e-01
2.025290e-01
2.160750e-01
2.326620e-01
2.522900e-01
2.749600e-01
2.292420e-01
2.436270e-01
2.608310e-01
2.808540e-01
3.036960e-01
0.000000e+00
0.000000e+00
0.000000e+00
0.000000e+00
0.000000e+00
1.231120e-01
1.334550e-01
1.466020e-01
1.625520e-01
1.813060e-01
2.147650e-01
2.321260e-01
2.539190e-01
2.801440e-01
3.108020e-01
2.749600e-01
2.960120e-01
3.219510e-01
3.527760e-01
3.884890e-01
3.036960e-01
3.251140e-01
3.506990e-01
3.804490e-01
4.143650e-01
0.000000e+00
0.000000e+00
0.000000e+00
0.000000e+00
0.000000e+00
1.813060e-01
1.995810e-01
2.206960e-01
2.446530e-01
2.714510e-01
3.108020e-01
3.409740e-01
3.755480e-01
4.145220e-01
4.578970e-01
3.884890e-01
4.241820e-01
4.645550e-01
5.096070e-01
5.593380e-01
4.143650e-01
4.492030e-01
4.877170e-01
5.299070e-01
5.757750e-01
0.000000e+00
0.000000e+00
0.000000e+00
0.000000e+00
0.000000e+00
2.714510e-01
3.032590e-01
3.344100e-01
3.649030e-01
3.947390e-01
4.578970e-01
5.096680e-01
5.606040e-01
6.107060e-01
6.599750e-01
5.593380e-01
6.192250e-01
6.785820e-01
7.374090e-01
7.957060e-01
5.757750e-01
6.319330e-01
6.883450e-01
7.450120e-01
8.019330e-01
0.000000e+00
0.000000e+00
0.000000e+00
0.000000e+00
0.000000e+00
3.947390e-01
4.371150e-01
4.709070e-01
4.961150e-01
5.127400e-01
6.599750e-01
7.297980e-01
7.872890e-01
8.324460e-01
8.652710e-01
7.957060e-01
8.780490e-01
9.491450e-01
1.008990e+00
1.057590e+00
8.019330e-01
8.818680e-01
9.564750e-01
1.025750e+00
1.089710e+00
0.000000e+00
0.000000e+00
0.000000e+00
0.000000e+00
0.000000e+00
5.127400e-01
5.254790e-01
5.282890e-01
5.211690e-01
5.041180e-01
8.652710e-01
8.928890e-01
9.054730e-01
9.030220e-01
8.855360e-01
1.057590e+00
1.102230e+00
1.131550e+00
1.145560e+00
1.144250e+00
1.089710e+00
1.153500e+00
1.206530e+00
1.248780e+00
1.280270e+00
0.000000e+00
0.000000e+00
0.000000e+00
0.000000e+00
0.000000e+00
5.041180e-01
4.572120e-01
4.073680e-01
3.545870e-01
2.988680e-01
8.855360e-01
8.201890e-01
7.478980e-01
6.686620e-01
5.824830e-01
1.144250e+00
1.088930e+00
1.021590e+00
9.422270e-01
8.508430e-01
1.280270e+00
1.263440e+00
1.228440e+00
1.175280e+00
1.103950e+00
0.000000e+00
0.000000e+00
0.000000e+00
0.000000e+00
0.000000e+00
2.988680e-01
2.438650e-01
1.983480e-01
1.623180e-01
1.357730e-01
5.824830e-01
4.910600e-01
4.129130e-01
3.480410e-01
2.964430e-01
8.508430e-01
7.415850e-01
6.436930e-01
5.571680e-01
4.820100e-01
1.103950e+00
9.954390e-01
8.906900e-01
7.897020e-01
6.924750e-01
0.000000e+00
0.000000e+00
0.000000e+00
0.000000e+00
0.000000e+00
1.357730e-01
1.119510e-01
9.716370e-02
9.141100e-02
9.469280e-02
2.964430e-01
2.509000e-01
2.198660e-01
2.033410e-01
2.013260e-01
4.820100e-01
4.168470e-01
3.681080e-01
3.357910e-01
3.198990e-01
6.924750e-01
6.097930e-01
5.418880e-01
4.887610e-01
4.504120e-01
0.000000e+00
0.000000e+00
0.000000e+00
0.000000e+00
0.000000e+00
9.469280e-02
9.761030e-02
9.878720e-02
9.822360e-02
9.591950e-02
2.013260e-01
2.008510e-01
1.981100e-01
1.931030e-01
1.858310e-01
3.198990e-01
3.097220e-01
2.979690e-01
2.846390e-01
2.697340e-01
4.504120e-01
4.242230e-01
3.983630e-01
3.728310e-01
3.476290e-01
0.000000e+00
0.000000e+00
0.000000e+00
0.000000e+00
0.000000e+00
9.591950e-02
9.525160e-02
9.317230e-02
8.968170e-02
8.477970e-02
1.858310e-01
1.813210e-01
1.750140e-01
1.669100e-01
1.570080e-01
2.697340e-01
2.582080e-01
2.455250e-01
2.316850e-01
2.166860e-01
3.476290e-01
3.259140e-01
3.047060e-01
2.840060e-01
2.638140e-01
0.000000e+00
0.000000e+00
0.000000e+00
0.000000e+00
0.000000e+00
8.477970e-02
8.173320e-02
7.830580e-02
7.449740e-02
7.030800e-02
1.570080e-01
1.502930e-01
1.431830e-01
1.356780e-01
1.277800e-01
2.166860e-01
2.056790e-01
1.946310e-01
1.835430e-01
1.724150e-01
2.638140e-01
2.478910e-01
2.326500e-01
2.180920e-01
2.042150e-01
0.000000e+00
0.000000e+00
0.000000e+00
0.000000e+00
0.000000e+00
7.030800e-02
6.712000e-02
6.392490e-02
6.072270e-02
5.751340e-02
1.277800e-01
1.215150e-01
1.153740e-01
1.093580e-01
1.034650e-01
1.724150e-01
1.631850e-01
1.543480e-01
1.459050e-01
1.378560e-01
2.042150e-01
1.921290e-01
1.808460e-01
1.703640e-01
1.606840e-01
0.000000e+00
0.000000e+00
0.000000e+00
0.000000e+00
0.000000e+00
5.751340e-02
5.476220e-02
5.208080e-02
4.946920e-02
4.692730e-02
1.034650e-01
9.833770e-02
9.339880e-02
8.864850e-02
8.408690e-02
1.378560e-01
1.307270e-01
1.239540e-01
1.175380e-01
1.114790e-01
1.606840e-01
1.519290e-01
1.437470e-01
1.361380e-01
1.291030e-01
0.000000e+00
0.000000e+00
0.000000e+00
0.000000e+00
0.000000e+00
4.692730e-02
4.503250e-02
4.258710e-02
3.959110e-02
3.604450e-02
8.408690e-02
8.037790e-02
7.607930e-02
7.119090e-02
6.571280e-02
1.114790e-01
1.060360e-01
1.004770e-01
9.479940e-02
8.900480e-02
1.291030e-01
1.220080e-01
1.157790e-01
1.104170e-01
1.059210e-01
1.002660e-01
1.093330e-01
1.157190e-01
1.194230e-01
1.204470e-01
9.945850e-02
1.074000e-01
1.137120e-01
1.183950e-01
1.214480e-01
9.848610e-02
1.052540e-01
1.111910e-01
1.162970e-01
1.205720e-01
9.734850e-02
1.028970e-01
1.081580e-01
1.131310e-01
1.178170e-01
9.604590e-02
1.003280e-01
1.046120e-01
1.088970e-01
1.131840e-01
1.204470e-01
1.212970e-01
1.228120e-01
1.249920e-01
1.278370e-01
1.214480e-01
1.238300e-01
1.265070e-01
1.294800e-01
1.327470e-01
1.205720e-01
1.240230e-01
1.275180e-01
1.310590e-01
1.346430e-01
1.178170e-01
1.218750e-01
1.258460e-01
1.297290e-01
1.335230e-01
1.131840e-01
1.173870e-01
1.214900e-01
1.254900e-01
1.293890e-01
1.278370e-01
1.315280e-01
1.360660e-01
1.414510e-01
1.476820e-01
1.327470e-01
1.366150e-01
1.413110e-01
1.468350e-01
1.531870e-01
1.346430e-01
1.386550e-01
1.434450e-01
1.490140e-01
1.553600e-01
1.335230e-01
1.376470e-01
1.424670e-01
1.479860e-01
1.542020e-01
1.293890e-01
1.335900e-01
1.383780e-01
1.437520e-01
1.497120e-01
1.476820e-01
1.543100e-01
1.618960e-01
1.704390e-01
1.799380e-01
1.531870e-01
1.599770e-01
1.676960e-01
1.763440e-01
1.859220e-01
1.553600e-01
1.621630e-01
1.698580e-01
1.784460e-01
1.879270e-01
1.542020e-01
1.608680e-01
1.683820e-01
1.767440e-01
1.859530e-01
1.497120e-01
1.560930e-01
1.632680e-01
1.712370e-01
1.800010e-01
1.799380e-01
1.898470e-01
2.013670e-01
2.144980e-01
2.292420e-01
1.859220e-01
1.958270e-01
2.073020e-01
2.203480e-01
2.349640e-01
1.879270e-01
1.976890e-01
2.089550e-01
2.217240e-01
2.359970e-01
1.859530e-01
1.954340e-01
2.063250e-01
2.186270e-01
2.323400e-01
1.800010e-01
1.890620e-01
1.994140e-01
2.110580e-01
2.239930e-01
2.292420e-01
2.436270e-01
2.608310e-01
2.808540e-01
3.036960e-01
2.349640e-01
2.490650e-01
2.659870e-01
2.857310e-01
3.082970e-01
2.359970e-01
2.496980e-01
2.661600e-01
2.853830e-01
3.073660e-01
2.323400e-01
2.455260e-01
2.613490e-01
2.798080e-01
3.009020e-01
2.239930e-01
2.365500e-01
2.515540e-01
2.690060e-01
2.889060e-01
3.036960e-01
3.251140e-01
3.506990e-01
3.804490e-01
4.143650e-01
3.082970e-01
3.287980e-01
3.538060e-01
3.833210e-01
4.173440e-01
3.073660e-01
3.268100e-01
3.510160e-01
3.799870e-01
4.137200e-01
3.009020e-01
3.191500e-01
3.423310e-01
3.704450e-01
4.034930e-01
2.889060e-01
3.058190e-01
3.277500e-01
3.546980e-01
3.866630e-01
4.143650e-01
4.492030e-01
4.877170e-01
5.299070e-01
5.757750e-01
4.173440e-01
4.506720e-01
4.886630e-01
5.313200e-01
5.786410e-01
4.137200e-01
4.451640e-01
4.821800e-01
5.247680e-01
5.729280e-01
4.034930e-01
4.326810e-01
4.682670e-01
5.102520e-01
5.586370e-01
3.866630e-01
4.132210e-01
4.469240e-01
4.877730e-01
5.357660e-01
5.757750e-01
6.319330e-01
6.883450e-01
7.450120e-01
8.019330e-01
5.786410e-01
6.363900e-01
6.949320e-01
7.542660e-01
8.143940e-01
5.729280e-01
6.313400e-01
6.911020e-01
7.522150e-01
8.146780e-01
5.586370e-01
6.167820e-01
6.768550e-01
7.388570e-01
8.027880e-01
5.357660e-01
5.927160e-01
6.521920e-01
7.141940e-01
7.787210e-01
8.019330e-01
8.818680e-01
9.564750e-01
1.025750e+00
1.089710e+00
8.143940e-01
9.005480e-01
9.807500e-01
1.055000e+00
1.123300e+00
8.146780e-01
9.073220e-01
9.943090e-01
1.075640e+00
1.151310e+00
8.027880e-01
9.021910e-01
9.971520e-01
1.087670e+00
1.173750e+00
7.787210e-01
8.851550e-01
9.892800e-01
1.091100e+00
1.190600e+00
1.089710e+00
1.153500e+00
1.206530e+00
1.248780e+00
1.280270e+00
1.123300e+00
1.200170e+00
1.264340e+00
1.315820e+00
1.354600e+00
1.151310e+00
1.242270e+00
1.318310e+00
1.379450e+00
1.425670e+00
1.173750e+00
1.279800e+00
1.368440e+00
1.439670e+00
1.493480e+00
1.190600e+00
1.312780e+00
1.414740e+00
1.496480e+00
1.558010e+00
1.280270e+00
1.263440e+00
1.228440e+00
1.175280e+00
1.103950e+00
1.354600e+00
1.337800e+00
1.309400e+00
1.269380e+00
1.217770e+00
1.425670e+00
1.404910e+00
1.376430e+00
1.340220e+00
1.296300e+00
1.493480e+00
1.464760e+00
1.429530e+00
1.387800e+00
1.339560e+00
1.558010e+00
1.517350e+00
1.468710e+00
1.412110e+00
1.347540e+00
1.103950e+00
9.954390e-01
8.906900e-01
7.897020e-01
6.924750e-01
1.217770e+00
1.127530e+00
1.034690e+00
9.392310e-01
8.411620e-01
1.296300e+00
1.215980e+00
1.130320e+00
1.039320e+00
9.429830e-01
1.339560e+00
1.260780e+00
1.177580e+00
1.089970e+00
9.979370e-01
1.347540e+00
1.261930e+00
1.176470e+00
1.091170e+00
1.006020e+00
6.924750e-01
6.097930e-01
5.418880e-01
4.887610e-01
4.504120e-01
8.411620e-01
7.508850e-01
6.714130e-01
6.027490e-01
5.448900e-01
9.429830e-01
8.499000e-01
7.634690e-01
6.836870e-01
6.105550e-01
9.979370e-01
9.068400e-01
8.180530e-01
7.315750e-01
6.474050e-01
1.006020e+00
9.217050e-01
8.351680e-01
7.464130e-01
6.554410e-01
4.504120e-01
4.242230e-01
3.983630e-01
3.728310e-01
3.476290e-01
5.448900e-01
5.030200e-01
4.635040e-01
4.263430e-01
3.915370e-01
6.105550e-01
5.566760e-01
5.067860e-01
4.608850e-01
4.189730e-01
6.474050e-01
5.851890e-01
5.282060e-01
4.764540e-01
4.299360e-01
6.554410e-01
5.885610e-01
5.277650e-01
4.730530e-01
4.244260e-01
3.476290e-01
3.259140e-01
3.047060e-01
2.840060e-01
2.638140e-01
3.915370e-01
3.622800e-01
3.348280e-01
3.091820e-01
2.853420e-01
4.189730e-01
3.841820e-01
3.522600e-01
3.232060e-01
2.970200e-01
4.299360e-01
3.916210e-01
3.570020e-01
3.260780e-01
2.988480e-01
4.244260e-01
3.845970e-01
3.490540e-01
3.177970e-01
2.908250e-01
2.638140e-01
2.478910e-01
2.326500e-01
2.180920e-01
2.042150e-01
2.853420e-01
2.668230e-01
2.493490e-01
2.329190e-01
2.175340e-01
2.970200e-01
2.769720e-01
2.582090e-01
2.407290e-01
2.245330e-01
2.988480e-01
2.783380e-01
2.592290e-01
2.415200e-01
2.252130e-01
2.908250e-01
2.709200e-01
2.524090e-01
2.352930e-01
2.195720e-01
2.042150e-01
1.921290e-01
1.808460e-01
1.703640e-01
1.606840e-01
2.175340e-01
2.040700e-01
1.916150e-01
1.801720e-01
1.697380e-01
2.245330e-01
2.102210e-01
1.970820e-01
1.851170e-01
1.743260e-01
2.252130e-01
2.105830e-01
1.972460e-01
1.852010e-01
1.744490e-01
2.195720e-01
2.051570e-01
1.921070e-01
1.804240e-01
1.701060e-01
1.606840e-01
1.519290e-01
1.437470e-01
1.361380e-01
1.291030e-01
1.697380e-01
1.603560e-01
1.516090e-01
1.434960e-01
1.360160e-01
1.743260e-01
1.646440e-01
1.556360e-01
1.473030e-01
1.396440e-01
1.744490e-01
1.647910e-01
1.558280e-01
1.475600e-01
1.399860e-01
1.701060e-01
1.607990e-01
1.521860e-01
1.442670e-01
1.370430e-01
1.291030e-01
1.220080e-01
1.157790e-01
1.104170e-01
1.059210e-01
1.360160e-01
1.287660e-01
1.223700e-01
1.168270e-01
1.121370e-01
1.396440e-01
1.324170e-01
1.260000e-01
1.203950e-01
1.156010e-01
1.399860e-01
1.329580e-01
1.266700e-01
1.211210e-01
1.163120e-01
1.370430e-01
1.303910e-01
1.243790e-01
1.190050e-01
1.142710e-01
9.604590e-02
1.003280e-01
1.046120e-01
1.088970e-01
1.131840e-01
9.458900e-02
9.848860e-02
1.024340e-01
1.064250e-01
1.104630e-01
9.299440e-02
9.662720e-02
1.003080e-01
1.040360e-01
1.078130e-01
9.126190e-02
9.474390e-02
9.823320e-02
1.017300e-01
1.052330e-01
8.939170e-02
9.283870e-02
9.620980e-02
9.950500e-02
1.027240e-01
1.131840e-01
1.173870e-01
1.214900e-01
1.254900e-01
1.293890e-01
1.104630e-01
1.145320e-01
1.185790e-01
1.226030e-01
1.266060e-01
1.078130e-01
1.117110e-01
1.156570e-01
1.196520e-01
1.236940e-01
1.052330e-01
1.089250e-01
1.127250e-01
1.166340e-01
1.206520e-01
1.027240e-01
1.061730e-01
1.097830e-01
1.135520e-01
1.174810e-01
1.293890e-01
1.335900e-01
1.383780e-01
1.437520e-01
1.497120e-01
1.266060e-01
1.308580e-01
1.356290e-01
1.409200e-01
1.467310e-01
1.236940e-01
1.279480e-01
1.326600e-01
1.378300e-01
1.434590e-01
1.206520e-01
1.248610e-01
1.294710e-01
1.344820e-01
1.398950e-01
1.174810e-01
1.215960e-01
1.260610e-01
1.308760e-01
1.360390e-01
1.497120e-01
1.560930e-01
1.632680e-01
1.712370e-01
1.800010e-01
1.467310e-01
1.529080e-01
1.598370e-01
1.675180e-01
1.759500e-01
1.434590e-01
1.493980e-01
1.560430e-01
1.633950e-01
1.714530e-01
1.398950e-01
1.455630e-01
1.518880e-01
1.588700e-01
1.665080e-01
1.360390e-01
1.414030e-01
1.473710e-01
1.539420e-01
1.611170e-01
1.800010e-01
1.890620e-01
1.994140e-01
2.110580e-01
2.239930e-01
1.759500e-01
1.846490e-01
1.945540e-01
2.056650e-01
2.179820e-01
1.714530e-01
1.797210e-01
1.891130e-01
1.996300e-01
2.112720e-01
1.665080e-01
1.742780e-01
1.830930e-01
1.929550e-01
2.038630e-01
1.611170e-01
1.683190e-01
1.764930e-01
1.856390e-01
1.957550e-01
2.239930e-01
2.365500e-01
2.515540e-01
2.690060e-01
2.889060e-01
2.179820e-01
2.299650e-01
2.442240e-01
2.607580e-01
2.795680e-01
2.112720e-01
2.225280e-01
2.359160e-01
2.514380e-01
2.690940e-01
2.038630e-01
2.142370e-01
2.266320e-01
2.410470e-01
2.574830e-01
1.957550e-01
2.050940e-01
2.163710e-01
2.295850e-01
2.447360e-01
2.889060e-01
3.058190e-01
3.277500e-01
3.546980e-01
3.866630e-01
2.795680e-01
2.950470e-01
3.157240e-01
3.416000e-01
3.726750e-01
2.690940e-01
2.829450e-01
3.021660e-01
3.267570e-01
3.567180e-01
2.574830e-01
2.695140e-01
2.870760e-01
3.101690e-01
3.387930e-01
2.447360e-01
2.547540e-01
2.704530e-01
2.918350e-01
3.188990e-01
3.866630e-01
4.132210e-01
4.469240e-01
4.877730e-01
5.357660e-01
3.726750e-01
3.960090e-01
4.275210e-01
4.672120e-01
5.150800e-01
3.567180e-01
3.756760e-01
4.044410e-01
4.430140e-01
4.913950e-01
3.387930e-01
3.522210e-01
3.776830e-01
4.151790e-01
4.647090e-01
3.188990e-01
3.256440e-01
3.472470e-01
3.837060e-01
4.350230e-01
5.357660e-01
5.927160e-01
6.521920e-01
7.141940e-01
7.787210e-01
5.150800e-01
5.714510e-01
6.291890e-01
6.882940e-01
7.487680e-01
4.913950e-01
5.430480e-01
5.963050e-01
6.511640e-01
7.076260e-01
4.647090e-01
5.075100e-01
5.535410e-01
6.028020e-01
6.552930e-01
4.350230e-01
4.648360e-01
5.008980e-01
5.432090e-01
5.917710e-01
7.787210e-01
8.851550e-01
9.892800e-01
1.091100e+00
1.190600e+00
7.487680e-01
8.800630e-01
1.001440e+00
1.112910e+00
1.214460e+00
7.076260e-01
8.563980e-01
9.827900e-01
1.086800e+00
1.168430e+00
6.552930e-01
8.141610e-01
9.333210e-01
1.012780e+00
1.052520e+00
5.917710e-01
7.533500e-01
8.530370e-01
8.908300e-01
8.667310e-01
1.190600e+00
1.312780e+00
1.414740e+00
1.496480e+00
1.558010e+00
1.214460e+00
1.329300e+00
1.427420e+00
1.508820e+00
1.573490e+00
1.168430e+00
1.274030e+00
1.367730e+00
1.449550e+00
1.519470e+00
1.052520e+00
1.146950e+00
1.235670e+00
1.318680e+00
1.395970e+00
8.667310e-01
9.480770e-01
1.031230e+00
1.116200e+00
1.202980e+00
1.558010e+00
1.517350e+00
1.468710e+00
1.412110e+00
1.347540e+00
1.573490e+00
1.539750e+00
1.495610e+00
1.441050e+00
1.376080e+00
1.519470e+00
1.484330e+00
1.443910e+00
1.398230e+00
1.347270e+00
1.395970e+00
1.351080e+00
1.313640e+00
1.283650e+00
1.261110e+00
1.202980e+00
1.140000e+00
1.104770e+00
1.097300e+00
1.117590e+00
1.347540e+00
1.261930e+00
1.176470e+00
1.091170e+00
1.006020e+00
1.376080e+00
1.266900e+00
1.162120e+00
1.061750e+00
9.657970e-01
1.347270e+00
1.232410e+00
1.121070e+00
1.013240e+00
9.089440e-01
1.261110e+00
1.158460e+00
1.053310e+00
9.456420e-01
8.354650e-01
1.117590e+00
1.045060e+00
9.588480e-01
8.589470e-01
7.453600e-01
1.006020e+00
9.217050e-01
8.351680e-01
7.464130e-01
6.554410e-01
9.657970e-01
8.870750e-01
8.043580e-01
7.176480e-01
6.269440e-01
9.089440e-01
8.363100e-01
7.586070e-01
6.758360e-01
5.879980e-01
8.354650e-01
7.694100e-01
6.979140e-01
6.209780e-01
5.386020e-01
7.453600e-01
6.863750e-01
6.222800e-01
5.530740e-01
4.787580e-01
6.554410e-01
5.885610e-01
5.277650e-01
4.730530e-01
4.244260e-01
6.269440e-01
5.629450e-01
5.051310e-01
4.535010e-01
4.080560e-01
5.879980e-01
5.300640e-01
4.776660e-01
4.308070e-01
3.894840e-01
5.386020e-01
4.899150e-01
4.453710e-01
4.049680e-01
3.687080e-01
4.787580e-01
4.425010e-01
4.082440e-01
3.759870e-01
3.457300e-01
4.244260e-01
3.845970e-01
3.490540e-01
3.177970e-01
2.908250e-01
4.080560e-01
3.698110e-01
3.357190e-01
3.057810e-01
2.799960e-01
3.894840e-01
3.533330e-01
3.211100e-01
2.928150e-01
2.684470e-01
3.687080e-01
3.351640e-01
3.052280e-01
2.789000e-01
2.561800e-01
3.457300e-01
3.153040e-01
2.880730e-01
2.640360e-01
2.431930e-01
2.908250e-01
2.709200e-01
2.524090e-01
2.352930e-01
2.195720e-01
2.799960e-01
2.619150e-01
2.448760e-01
2.288780e-01
2.139210e-01
2.684470e-01
2.523350e-01
2.368710e-01
2.220540e-01
2.078840e-01
2.561800e-01
2.421800e-01
2.283930e-01
2.148200e-01
2.014610e-01
2.431930e-01
2.314490e-01
2.194440e-01
2.071780e-01
1.946520e-01
2.195720e-01
2.051570e-01
1.921070e-01
1.804240e-01
1.701060e-01
2.139210e-01
1.998640e-01
1.872250e-01
1.760010e-01
1.661950e-01
2.078840e-01
1.942450e-01
1.820630e-01
1.713400e-01
1.620750e-01
2.014610e-01
1.882970e-01
1.766230e-01
1.664390e-01
1.577450e-01
1.946520e-01
1.820220e-01
1.709050e-01
1.612990e-01
1.532060e-01
1.701060e-01
1.607990e-01
1.521860e-01
1.442670e-01
1.370430e-01
1.661950e-01
1.573770e-01
1.491850e-01
1.416190e-01
1.346790e-01
1.620750e-01
1.537620e-01
1.460030e-01
1.387980e-01
1.321460e-01
1.577450e-01
1.499550e-01
1.426410e-01
1.358040e-01
1.294430e-01
1.532060e-01
1.459550e-01
1.390980e-01
1.326370e-01
1.265720e-01
1.370430e-01
1.303910e-01
1.243790e-01
1.190050e-01
1.142710e-01
1.346790e-01
1.282950e-01
1.225250e-01
1.173700e-01
1.128300e-01
1.321460e-01
1.260220e-01
1.204950e-01
1.155670e-01
1.112350e-01
1.294430e-01
1.235730e-01
1.182900e-01
1.135940e-01
1.094860e-01
1.265720e-01
1.209480e-01
1.159080e-01
1.114540e-01
1.075840e-01
8.939170e-02
9.283870e-02
9.620980e-02
9.950500e-02
1.027240e-01
8.740010e-02
9.064280e-02
9.383180e-02
9.696680e-02
1.000480e-01
8.530680e-02
8.834200e-02
9.134820e-02
9.432560e-02
9.727410e-02
8.311190e-02
8.593600e-02
8.875920e-02
9.158150e-02
9.440280e-02
8.081530e-02
8.342500e-02
8.606460e-02
8.873430e-02
9.143400e-02
1.027240e-01
1.061730e-01
1.097830e-01
1.135520e-01
1.174810e-01
1.000480e-01
1.033060e-01
1.067440e-01