<?xml version="1.0"?>
<VTKFile type="UnstructuredGrid" version="0.1" byte_order="LittleEndian" compressor="vtkZLibDataCompressor">
<UnstructuredGrid>
<Piece NumberOfPoints="10000" NumberOfCells="6400">
<Points>
<DataArray type="Float32" NumberOfComponents="3" format="ascii">
-3.360000e+00 0.000000e+00 0.000000e+00
-3.276000e+00 0.000000e+00 0.000000e+00
-3.192000e+00 0.000000e+00 0.000000e+00
-3.108000e+00 0.000000e+00 0.000000e+00
-3.024000e+00 0.000000e+00 0.000000e+00
-3.360000e+00 6.412500e-02 0.000000e+00
-3.276000e+00 6.412500e-02 0.000000e+00
-3.192000e+00 6.412500e-02 0.000000e+00
-3.108000e+00 6.412500e-02 0.000000e+00
-3.024000e+00 6.412500e-02 0.000000e+00
-3.360000e+00 1.282500e-01 0.000000e+00
-3.276000e+00 1.282500e-01 0.000000e+00
-3.192000e+00 1.282500e-01 0.000000e+00
-3.108000e+00 1.282500e-01 0.000000e+00
-3.024000e+00 1.282500e-01 0.000000e+00
-3.360000e+00 1.923750e-01 0.000000e+00
-3.276000e+00 1.923750e-01 0.000000e+00
-3.192000e+00 1.923750e-01 0.000000e+00
-3.108000e+00 1.923750e-01 0.000000e+00
-3.024000e+00 1.923750e-01 0.000000e+00
-3.360000e+00 2.565000e-01 0.000000e+00
-3.276000e+00 2.565000e-01 0.000000e+00
-3.192000e+00 2.565000e-01 0.000000e+00
-3.108000e+00 2.565000e-01 0.000000e+00
-3.024000e+00 2.565000e-01 0.000000e+00
-3.024000e+00 0.000000e+00 0.000000e+00
-2.940000e+00 0.000000e+00 0.000000e+00
-2.856000e+00 0.000000e+00 0.000000e+00
-2.772000e+00 0.000000e+00 0.000000e+00
-2.688000e+00 0.000000e+00 0.000000e+00
-3.024000e+00 6.412500e-02 0.000000e+00
-2.940000e+00 6.412500e-02 0.000000e+00
-2.856000e+00 6.412500e-02 0.000000e+00
-2.772000e+00 6.412500e-02 0.000000e+00
-2.688000e+00 6.412500e-02 0.000000e+00
-3.024000e+00 1.282500e-01 0.000000e+00
-2.940000e+00 1.282500e-01 0.000000e+00
-2.856000e+00 1.282500e-01 0.000000e+00
-2.772000e+00 1.282500e-01 0.000000e+00
-2.688000e+00 1.282500e-01 0.000000e+00
-3.024000e+00 1.923750e-01 0.000000e+00
-2.940000e+00 1.923750e-01 0.000000e+00
-2.856000e+00 1.923750e-01 0.000000e+00
-2.772000e+00 1.923750e-01 0.000000e+00
-2.688000e+00 1.923750e-01 0.000000e+00
-3.024000e+00 2.565000e-01 0.000000e+00
-2.940000e+00 2.565000e-01 0.000000e+00
-2.856000e+00 2.565000e-01 0.000000e+00
-2.772000e+00 2.565000e-01 0.000000e+00
-2.688000e+00 2.565000e-01 0.000000e+00
-2.688000e+00 0.000000e+00 0.000000e+00
-2.604000e+00 0.000000e+00 0.000000e+00
-2.520000e+00 0.000000e+00 0.000000e+00
-2.436000e+00 0.000000e+00 0.000000e+00
-2.352000e+00 0.000000e+00 0.000000e+00
-2.688000e+00 6.412500e-02 0.000000e+00
-2.604000e+00 6.412500e-02 0.000000e+00
-2.520000e+00 6.412500e-02 0.000000e+00
-2.436000e+00 6.412500e-02 0.000000e+00
-2.352000e+00 6.412500e-02 0.000000e+00
-2.688000e+00 1.282500e-01 0.000000e+00
-2.604000e+00 1.282500e-01 0.000000e+00
-2.520000e+00 1.282500e-01 0.000000e+00
-2.436000e+00 1.282500e-01 0.000000e+00
-2.352000e+00 1.282500e-01 0.000000e+00
-2.688000e+00 1.923750e-01 0.000000e+00
-2.604000e+00 1.923750e-01 0.000000e+00
-2.520000e+00 1.923750e-01 0.000000e+00
-2.436000e+00 1.923750e-01 0.000000e+00
-2.352000e+00 1.923750e-01 0.000000e+00
-2.688000e+00 2.565000e-01 0.000000e+00
-2.604000e+00 2.565000e-01 0.000000e+00
-2.520000e+00 2.565000e-01 0.000000e+00
-2.436000e+00 2.565000e-01 0.000000e+00
-2.352000e+00 2.565000e-01 0.000000e+00
-2.352000e+00 0.000000e+00 0.000000e+00
-2.268000e+00 0.000000e+00 0.000000e+00
-2.184000e+00 0.000000e+00 0.000000e+00
-2.100000e+00 0.000000e+00 0.000000e+00
-2.016000e+00 0.000000e+00 0.000000e+00
-2.352000e+00 6.412500e-02 0.000000e+00
-2.268000e+00 6.412500e-02 0.000000e+00
-2.184000e+00 6.412500e-02 0.000000e+00
-2.100000e+00 6.412500e-02 0.000000e+00
-2.016000e+00 6.412500e-02 0.000000e+00
-2.352000e+00 1.282500e-01 0.000000e+00
-2.268000e+00 1.282500e-01 0.000000e+00
-2.184000e+00 1.282500e-01 0.000000e+00
-2.100000e+00 1.282500e-01 0.000000e+00
-2.016000e+00 1.282500e-01 0.000000e+00
-2.352000e+00 1.923750e-01 0.000000e+00
-2.268000e+00 1.923750e-01 0.000000e+00
-2.184000e+00 1.923750e-01 0.000000e+00
-2.100000e+00 1.923750e-01 0.000000e+00
-2.016000e+00 1.923750e-01 0.000000e+00
-2.352000e+00 2.565000e-01 0.000000e+00
-2.268000e+00 2.565000e-01 0.000000e+00
-2.184000e+00 2.565000e-01 0.000000e+00
-2.100000e+00 2.565000e-01 0.000000e+00
-2.016000e+00 2.565000e-01 0.000000e+00
-2.016000e+00 0.000000e+00 0.000000e+00
-1.932000e+00 0.000000e+00 0.000000e+00
-1.848000e+00 0.000000e+00 0.000000e+00
-1.764000e+00 0.000000e+00 0.000000e+00
-1.680000e+00 0.000000e+00 0.000000e+00
-2.016000e+00 6.412500e-02 0.000000e+00
-1.932000e+00 6.412500e-02 0.000000e+00
-1.848000e+00 6.412500e-02 0.000000e+00
-1.764000e+00 6.412500e-02 0.000000e+00
-1.680000e+00 6.412500e-02 0.000000e+00
-2.016000e+00 1.282500e-01 0.000000e+00
-1.932000e+00 1.282500e-01 0.000000e+00
-1.848000e+00 1.282500e-01 0.000000e+00
-1.764000e+00 1.282500e-01 0.000000e+00
-1.680000e+00 1.282500e-01 0.000000e+00
-2.016000e+00 1.923750e-01 0.000000e+00
-1.932000e+00 1.923750e-01 0.000000e+00
-1.848000e+00 1.923750e-01 0.000000e+00
-1.764000e+00 1.923750e-01 0.000000e+00
-1.680000e+00 1.923750e-01 0.000000e+00
-2.016000e+00 2.565000e-01 0.000000e+00
-1.932000e+00 2.565000e-01 0.000000e+00
-1.848000e+00 2.565000e-01 0.000000e+00
-1.764000e+00 2.565000e-01 0.000000e+00
-1.680000e+00 2.565000e-01 0.000000e+00
-1.680000e+00 0.000000e+00 0.000000e+00
-1.596000e+00 0.000000e+00 0.000000e+00
-1.512000e+00 0.000000e+00 0.000000e+00
-1.428000e+00 0.000000e+00 0.000000e+00
-1.344000e+00 0.000000e+00 0.000000e+00
-1.680000e+00 6.412500e-02 0.000000e+00
-1.596000e+00 6.412500e-02 0.000000e+00
-1.512000e+00 6.412500e-02 0.000000e+00
-1.428000e+00 6.412500e-02 0.000000e+00
-1.344000e+00 6.412500e-02 0.000000e+00
-1.680000e+00 1.282500e-01 0.000000e+00
-1.596000e+00 1.282500e-01 0.000000e+00
-1.512000e+00 1.282500e-01 0.000000e+00
-1.428000e+00 1.282500e-01 0.000000e+00
-1.344000e+00 1.282500e-01 0.000000e+00
-1.680000e+00 1.923750e-01 0.000000e+00
-1.596000e+00 1.923750e-01 0.000000e+00
-1.512000e+00 1.923750e-01 0.000000e+00
-1.428000e+00 1.923750e-01 0.000000e+00
-1.344000e+00 1.923750e-01 0.000000e+00
-1.680000e+00 2.565000e-01 0.000000e+00
-1.596000e+00 2.565000e-01 0.000000e+00
-1.512000e+00 2.565000e-01 0.000000e+00
-1.428000e+00 2.565000e-01 0.000000e+00
-1.344000e+00 2.565000e-01 0.000000e+00
-1.344000e+00 0.000000e+00 0.000000e+00
-1.260000e+00 0.000000e+00 0.000000e+00
-1.176000e+00 0.000000e+00 0.000000e+00
-1.092000e+00 0.000000e+00 0.000000e+00
-1.008000e+00 0.000000e+00 0.000000e+00
-1.344000e+00 6.412500e-02 0.000000e+00
-1.260000e+00 6.412500e-02 0.000000e+00
-1.176000e+00 6.412500e-02 0.000000e+00
-1.092000e+00 6.412500e-02 0.000000e+00
-1.008000e+00 6.412500e-02 0.000000e+00
-1.344000e+00 1.282500e-01 0.000000e+00
-1.260000e+00 1.282500e-01 0.000000e+00
-1.176000e+00 1.282500e-01 0.000000e+00
-1.092000e+00 1.282500e-01 0.000000e+00
-1.008000e+00 1.282500e-01 0.000000e+00
-1.344000e+00 1.923750e-01 0.000000e+00
-1.260000e+00 1.923750e-01 0.000000e+00
-1.176000e+00 1.923750e-01 0.000000e+00
-1.092000e+00 1.923750e-01 0.000000e+00
-1.008000e+00 1.923750e-01 0.000000e+00
-1.344000e+00 2.565000e-01 0.000000e+00
-1.260000e+00 2.565000e-01 0.000000e+00
-1.176000e+00 2.565000e-01 0.000000e+00
-1.092000e+00 2.565000e-01 0.000000e+00
-1.008000e+00 2.565000e-01 0.000000e+00
-1.008000e+00 0.000000e+00 0.000000e+00
-9.240000e-01 0.000000e+00 0.000000e+00
-8.400000e-01 0.000000e+00 0.000000e+00
-7.560000e-01 0.000000e+00 0.000000e+00
-6.720000e-01 0.000000e+00 0.000000e+00
-1.008000e+00 6.412500e-02 0.000000e+00
-9.240000e-01 6.412500e-02 0.000000e+00
-8.400000e-01 6.412500e-02 0.000000e+00
-7.560000e-01 6.412500e-02 0.000000e+00
-6.720000e-01 6.412500e-02 0.000000e+00
-1.008000e+00 1.282500e-01 0.000000e+00
-9.240000e-01 1.282500e-01 0.000000e+00
-8.400000e-01 1.282500e-01 0.000000e+00
-7.560000e-01 1.282500e-01 0.000000e+00
-6.720000e-01 1.282500e-01 0.000000e+00
-1.008000e+00 1.923750e-01 0.000000e+00
-9.240000e-01 1.923750e-01 0.000000e+00
-8.400000e-01 1.923750e-01 0.000000e+00
-7.560000e-01 1.923750e-01 0.000000e+00
-6.720000e-01 1.923750e-01 0.000000e+00
-1.008000e+00 2.565000e-01 0.000000e+00
-9.240000e-01 2.565000e-01 0.000000e+00
-8.400000e-01 2.565000e-01 0.000000e+00
-7.560000e-01 2.565000e-01 0.000000e+00
-6.720000e-01 2.565000e-01 0.000000e+00
-6.720000e-01 0.000000e+00 0.000000e+00
-5.880000e-01 0.000000e+00 0.000000e+00
-5.040000e-01 0.000000e+00 0.000000e+00
-4.200000e-01 0.000000e+00 0.000000e+00
-3.360000e-01 0.000000e+00 0.000000e+00
-6.720000e-01 6.412500e-02 0.000000e+00
-5.880000e-01 6.412500e-02 0.000000e+00
-5.040000e-01 6.412500e-02 0.000000e+00
-4.200000e-01 6.412500e-02 0.000000e+00
-3.360000e-01 6.412500e-02 0.000000e+00
-6.720000e-01 1.282500e-01 0.000000e+00
-5.880000e-01 1.282500e-01 0.000000e+00
-5.040000e-01 1.282500e-01 0.000000e+00
-4.200000e-01 1.282500e-01 0.000000e+00
-3.360000e-01 1.282500e-01 0.000000e+00
-6.720000e-01 1.923750e-01 0.000000e+00
-5.880000e-01 1.923750e-01 0.000000e+00
-5.040000e-01 1.923750e-01 0.000000e+00
-4.200000e-01 1.923750e-01 0.000000e+00
-3.360000e-01 1.923750e-01 0.000000e+00
-6.720000e-01 2.565000e-01 0.000000e+00
-5.880000e-01 2.565000e-01 0.000000e+00
-5.040000e-01 2.565000e-01 0.000000e+00
-4.200000e-01 2.565000e-01 0.000000e+00
-3.360000e-01 2.565000e-01 0.000000e+00
-3.360000e-01 0.000000e+00 0.000000e+00
-2.520000e-01 0.000000e+00 0.000000e+00
-1.680000e-01 0.000000e+00 0.000000e+00
-8.400000e-02 0.000000e+00 0.000000e+00
-4.440890e-16 0.000000e+00 0.000000e+00
-3.360000e-01 6.412500e-02 0.000000e+00
-2.520000e-01 6.412500e-02 0.000000e+00
-1.680000e-01 6.412500e-02 0.000000e+00
-8.400000e-02 6.412500e-02 0.000000e+00
-4.440890e-16 6.412500e-02 0.000000e+00
-3.360000e-01 1.282500e-01 0.000000e+00
-2.520000e-01 1.282500e-01 0.000000e+00
-1.680000e-01 1.282500e-01 0.000000e+00
-8.400000e-02 1.282500e-01 0.000000e+00
-4.440890e-16 1.282500e-01 0.000000e+00
-3.360000e-01 1.923750e-01 0.000000e+00
-2.520000e-01 1.923750e-01 0.000000e+00
-1.680000e-01 1.923750e-01 0.000000e+00
[...]
<PointData>
<DataArray type="Float32" Name="V1" format="ascii">
0.000000e+00
0.000000e+00
0.000000e+00
0.000000e+00
0.000000e+00
6.347820e-02
5.962280e-02
5.566360e-02
5.160070e-02
4.743410e-02
1.013490e-01
9.770620e-02
9.340140e-02
8.843420e-02
8.280470e-02
1.136110e-01
1.142500e-01
1.132130e-01
1.105000e-01
1.061120e-01
1.002660e-01
1.092550e-01
1.150990e-01
1.178000e-01
1.173550e-01
0.000000e+00
0.000000e+00
0.000000e+00
0.000000e+00
0.000000e+00
4.743410e-02
4.326830e-02
4.066700e-02
3.963030e-02
4.015810e-02
8.280470e-02
7.706870e-02
7.352490e-02
7.217310e-02
7.301340e-02
1.061120e-01
1.014010e-01
9.857360e-02
9.762840e-02
9.856570e-02
1.173550e-01
1.162660e-01
1.158130e-01
1.159960e-01
1.168150e-01
0.000000e+00
0.000000e+00
0.000000e+00
0.000000e+00
0.000000e+00
4.015810e-02
4.078080e-02
4.161550e-02
4.266230e-02
4.392110e-02
7.301340e-02
7.415380e-02
7.572080e-02
7.771410e-02
8.013390e-02
9.856570e-02
1.001190e-01
1.023160e-01
1.051560e-01
1.086380e-01
1.168150e-01
1.186770e-01
1.214010e-01
1.249870e-01
1.294350e-01
0.000000e+00
0.000000e+00
0.000000e+00
0.000000e+00
0.000000e+00
4.392110e-02
4.530410e-02
4.713050e-02
4.940030e-02
5.211350e-02
8.013390e-02
8.278410e-02
8.615840e-02
9.025670e-02
9.507900e-02
1.086380e-01
1.124400e-01
1.170840e-01
1.225690e-01
1.288970e-01
1.294350e-01
1.342720e-01
1.399060e-01
1.463380e-01
1.535660e-01
0.000000e+00
0.000000e+00
0.000000e+00
0.000000e+00
0.000000e+00
5.211350e-02
5.505940e-02
5.857120e-02
6.264880e-02
6.729220e-02
9.507900e-02
1.003080e-01
1.064980e-01
1.136470e-01
1.217570e-01
1.288970e-01
1.357460e-01
1.437790e-01
1.529950e-01
1.633930e-01
1.535660e-01
1.613740e-01
1.704150e-01
1.806910e-01
1.922020e-01
0.000000e+00
0.000000e+00
0.000000e+00
0.000000e+00
0.000000e+00
6.729220e-02
7.205920e-02
7.795370e-02
8.497570e-02
9.312530e-02
1.217570e-01
1.300740e-01
1.402410e-01
1.522570e-01
1.661240e-01
1.633930e-01
1.740440e-01
1.868610e-01
2.018440e-01
2.189950e-01
1.922020e-01
2.039690e-01
2.178140e-01
2.337370e-01
2.517390e-01
0.000000e+00
0.000000e+00
0.000000e+00
0.000000e+00
0.000000e+00
9.312530e-02
1.009830e-01
1.109090e-01
1.229030e-01
1.369660e-01
1.661240e-01
1.795050e-01
1.962130e-01
2.162460e-01
2.396060e-01
2.189950e-01
2.355670e-01
2.559120e-01
2.800290e-01
3.079190e-01
2.517390e-01
2.691690e-01
2.900070e-01
3.142530e-01
3.419060e-01
0.000000e+00
0.000000e+00
0.000000e+00
0.000000e+00
0.000000e+00
1.369660e-01
1.502770e-01
1.664920e-01
1.856130e-01
2.076380e-01
2.396060e-01
2.618400e-01
2.886250e-01
3.199620e-01
3.558500e-01
3.079190e-01
3.346900e-01
3.663990e-01
4.030480e-01
4.446350e-01
3.419060e-01
3.688260e-01
3.998140e-01
4.348700e-01
4.739930e-01
0.000000e+00
0.000000e+00
0.000000e+00
0.000000e+00
0.000000e+00
2.076380e-01
2.314600e-01
2.563710e-01
2.823720e-01
3.094620e-01
3.558500e-01
3.950340e-01
4.359390e-01
4.785630e-01
5.229080e-01
4.446350e-01
4.907220e-01
5.387020e-01
5.885750e-01
6.403390e-01
4.739930e-01
5.185240e-01
5.646620e-01
6.124050e-01
6.617550e-01
0.000000e+00
0.000000e+00
0.000000e+00
0.000000e+00
0.000000e+00
3.094620e-01
3.452590e-01
3.765940e-01
4.034650e-01
4.258730e-01
5.229080e-01
5.816730e-01
6.340130e-01
6.799280e-01
7.194190e-01
6.403390e-01
7.092400e-01
7.722570e-01
8.293900e-01
8.806380e-01
6.617550e-01
7.279630e-01
7.913270e-01
8.518490e-01
9.095280e-01
0.000000e+00
0.000000e+00
0.000000e+00
0.000000e+00
0.000000e+00
4.258730e-01
4.537050e-01
4.720580e-01
4.809310e-01
4.803260e-01
7.194190e-01
7.683150e-01
8.032680e-01
8.242780e-01
8.313460e-01
8.806380e-01
9.438290e-01
9.936300e-01
1.030040e+00
1.053060e+00
9.095280e-01
9.802490e-01
1.043140e+00
1.098220e+00
1.145460e+00
0.000000e+00
0.000000e+00
0.000000e+00
0.000000e+00
0.000000e+00
4.803260e-01
4.584670e-01
4.286990e-01
3.910220e-01
3.454370e-01
8.313460e-01
8.057910e-01
7.667180e-01
7.141250e-01
6.480130e-01
1.053060e+00
1.041970e+00
1.014060e+00
9.693090e-01
9.077290e-01
1.145460e+00
1.167010e+00
1.170720e+00
1.156570e+00
1.124580e+00
0.000000e+00
0.000000e+00
0.000000e+00
0.000000e+00
0.000000e+00
3.454370e-01
2.868210e-01
2.319530e-01
1.808310e-01
1.334570e-01
6.480130e-01
5.557880e-01
4.661540e-01
3.791120e-01
2.946610e-01
9.077290e-01
8.069000e-01
7.026040e-01
5.948410e-01
4.836120e-01
1.124580e+00
1.040160e+00
9.413020e-01
8.280190e-01
7.003090e-01
0.000000e+00
0.000000e+00
0.000000e+00
0.000000e+00
0.000000e+00
1.334570e-01
9.772350e-02
7.011970e-02
5.064560e-02
3.930120e-02
2.946610e-01
2.277850e-01
1.751450e-01
1.367420e-01
1.125740e-01
4.836120e-01
3.901850e-01
3.150770e-01
2.582880e-01
2.198190e-01
7.003090e-01
5.849220e-01
4.899140e-01
4.152850e-01
3.610350e-01
0.000000e+00
0.000000e+00
0.000000e+00
0.000000e+00
0.000000e+00
3.930120e-02
2.916320e-02
2.616220e-02
3.029830e-02
4.157140e-02
1.125740e-01
9.189420e-02
8.286320e-02
8.548110e-02
9.974790e-02
2.198190e-01
1.881930e-01
1.701030e-01
1.655480e-01
1.745300e-01
3.610350e-01
3.180600e-01
2.878810e-01
2.705000e-01
2.659170e-01
0.000000e+00
0.000000e+00
0.000000e+00
0.000000e+00
0.000000e+00
4.157140e-02
4.900100e-02
5.419150e-02
5.714270e-02
5.785460e-02
9.974790e-02
1.091230e-01
1.149930e-01
1.173560e-01
1.162130e-01
1.745300e-01
1.803670e-01
1.824040e-01
1.806400e-01
1.750760e-01
2.659170e-01
2.627320e-01
2.564240e-01
2.469950e-01
2.344440e-01
0.000000e+00
0.000000e+00
0.000000e+00
0.000000e+00
0.000000e+00
5.785460e-02
5.987520e-02
6.046520e-02
5.962460e-02
5.735340e-02
1.162130e-01
1.173030e-01
1.163960e-01
1.134920e-01
1.085900e-01
1.750760e-01
1.722850e-01
1.677930e-01
1.616010e-01
1.537100e-01
2.344440e-01
2.248190e-01
2.146550e-01
2.039530e-01
1.927130e-01
0.000000e+00
0.000000e+00
0.000000e+00
0.000000e+00
0.000000e+00
5.735340e-02
5.619120e-02
5.463370e-02
5.268100e-02
5.033310e-02
1.085900e-01
1.054780e-01
1.018670e-01
9.775690e-02
9.314760e-02
1.537100e-01
1.478610e-01
1.417000e-01
1.352280e-01
1.284430e-01
1.927130e-01
1.833390e-01
1.741330e-01
1.650930e-01
1.562210e-01
0.000000e+00
0.000000e+00
0.000000e+00
0.000000e+00
0.000000e+00
5.033310e-02
4.861340e-02
4.675670e-02
4.476310e-02
4.263250e-02
9.314760e-02
8.957950e-02
8.588650e-02
8.206860e-02
7.812590e-02
1.284430e-01
1.228980e-01
1.173890e-01
1.119170e-01
1.064800e-01
1.562210e-01
1.485700e-01
1.412650e-01
1.343070e-01
1.276950e-01
0.000000e+00
0.000000e+00
0.000000e+00
0.000000e+00
0.000000e+00
4.263250e-02
4.125290e-02
3.919090e-02
3.644660e-02
3.301990e-02
7.812590e-02
7.518730e-02
7.145950e-02
6.694250e-02
6.163630e-02
1.064800e-01
1.018030e-01
9.680580e-02
9.148780e-02
8.584910e-02
1.276950e-01
1.211010e-01
1.152300e-01
1.100820e-01
1.056590e-01
1.002660e-01
1.092550e-01
1.150990e-01
1.178000e-01
1.173550e-01
9.945850e-02
1.075120e-01
1.136190e-01
1.177810e-01
1.199950e-01
9.848610e-02
1.054680e-01
1.114190e-01
1.163380e-01
1.202270e-01
9.734850e-02
1.031230e-01
1.084970e-01
1.134730e-01
1.180500e-01
9.604590e-02
1.004760e-01
1.048550e-01
1.091850e-01
1.134640e-01
1.173550e-01
1.162660e-01
1.158130e-01
1.159960e-01
1.168150e-01
1.199950e-01
1.210340e-01
1.222180e-01
1.235490e-01
1.250270e-01
1.202270e-01
1.227980e-01
1.251900e-01
1.274000e-01
1.294310e-01
1.180500e-01
1.215610e-01
1.247270e-01
1.275490e-01
1.300270e-01
1.134640e-01
1.173200e-01
1.208310e-01
1.239950e-01
1.268150e-01
1.168150e-01
1.186770e-01
1.214010e-01
1.249870e-01
1.294350e-01
1.250270e-01
1.272180e-01
1.302450e-01
1.341080e-01
1.388060e-01
1.294310e-01
1.319290e-01
1.351980e-01
1.392380e-01
1.440490e-01
1.300270e-01
1.328100e-01
1.362600e-01
1.403780e-01
1.451640e-01
1.268150e-01
1.298600e-01
1.334310e-01
1.375280e-01
1.421510e-01
1.294350e-01
1.342720e-01
1.399060e-01
1.463380e-01
1.535660e-01
1.388060e-01
1.439590e-01
1.498900e-01
1.565990e-01
1.640860e-01
1.440490e-01
1.493460e-01
1.553930e-01
1.621900e-01
1.697380e-01
1.451640e-01
1.504340e-01
1.564170e-01
1.631130e-01
1.705210e-01
1.421510e-01
1.472230e-01
1.529610e-01
1.593660e-01
1.664360e-01
1.535660e-01
1.613740e-01
1.704150e-01
1.806910e-01
1.922020e-01
1.640860e-01
1.720830e-01
1.812820e-01
1.916850e-01
2.032920e-01
1.697380e-01
1.777390e-01
1.868940e-01
1.972020e-01
2.086640e-01
1.705210e-01
1.783420e-01
1.872490e-01
1.972420e-01
2.083200e-01
1.664360e-01
1.738930e-01
1.823490e-01
1.918040e-01
2.022590e-01
1.922020e-01
2.039690e-01
2.178140e-01
2.337370e-01
2.517390e-01
2.032920e-01
2.150700e-01
2.288740e-01
2.447020e-01
2.625550e-01
2.086640e-01
2.202490e-01
2.337800e-01
2.492570e-01
2.666800e-01
2.083200e-01
2.195050e-01
2.325320e-01
2.474020e-01
2.641140e-01
2.022590e-01
2.128380e-01
2.251310e-01
2.391370e-01
2.548550e-01
2.517390e-01
2.691690e-01
2.900070e-01
3.142530e-01
3.419060e-01
2.625550e-01
2.794600e-01
2.998710e-01
3.237870e-01
3.512090e-01
2.666800e-01
2.828780e-01
3.026370e-01
3.259570e-01
3.528390e-01
2.641140e-01
2.794210e-01
2.983040e-01
3.207610e-01
3.467940e-01
2.548550e-01
2.690900e-01
2.868720e-01
3.082010e-01
3.330770e-01
3.419060e-01
3.688260e-01
3.998140e-01
4.348700e-01
4.739930e-01
3.512090e-01
3.769520e-01
4.072530e-01
4.421120e-01
4.815300e-01
3.528390e-01
3.771480e-01
4.064690e-01
4.408000e-01
4.801430e-01
3.467940e-01
3.694150e-01
3.974620e-01
4.309340e-01
4.698320e-01
3.330770e-01
3.537520e-01
3.802310e-01
4.125130e-01
4.505980e-01
4.739930e-01
5.185240e-01
5.646620e-01
6.124050e-01
6.617550e-01
4.815300e-01
5.250270e-01
5.711920e-01
6.200270e-01
6.715300e-01
4.801430e-01
5.222960e-01
5.680120e-01
6.172890e-01
6.701280e-01
4.698320e-01
5.103330e-01
5.551190e-01
6.041910e-01
6.575490e-01
4.505980e-01
4.891360e-01
5.325150e-01
5.807330e-01
6.337920e-01
6.617550e-01
7.279630e-01
7.913270e-01
8.518490e-01
9.095280e-01
6.715300e-01
7.422670e-01
8.101700e-01
8.752370e-01
9.374690e-01
6.701280e-01
7.446290e-01
8.164610e-01
8.856240e-01
9.521170e-01
6.575490e-01
7.350480e-01
8.102010e-01
8.830090e-01
9.534720e-01
6.337920e-01
7.135230e-01
7.913900e-01
8.673940e-01
9.415340e-01
9.095280e-01
9.802490e-01
1.043140e+00
1.098220e+00
1.145460e+00
9.374690e-01
1.020630e+00
1.094700e+00
1.159680e+00
1.215570e+00
9.521170e-01
1.046470e+00
1.130580e+00
1.204470e+00
1.268120e+00
9.534720e-01
1.057770e+00
1.150810e+00
1.232590e+00
1.303120e+00
9.415340e-01
1.054540e+00
1.155380e+00
1.244050e+00
1.320560e+00
1.145460e+00
1.167010e+00
1.170720e+00
1.156570e+00
1.124580e+00
1.215570e+00
1.243450e+00
1.255950e+00
1.253090e+00
1.234860e+00
1.268120e+00
1.301390e+00
1.321110e+00
1.327290e+00
1.319930e+00
1.303120e+00
1.340840e+00
1.366200e+00
1.379190e+00
1.379810e+00
1.320560e+00
1.361810e+00
1.391220e+00
1.408770e+00
1.414490e+00
1.124580e+00
1.040160e+00
9.413020e-01
8.280190e-01
7.003090e-01
1.234860e+00
1.168140e+00
1.086290e+00
9.892990e-01
8.771700e-01
1.319930e+00
1.263250e+00
1.192830e+00
1.108660e+00
1.010750e+00
1.379810e+00
1.325480e+00
1.260910e+00
1.186110e+00
1.101060e+00
1.414490e+00
1.354840e+00
1.290550e+00
1.221640e+00
1.148090e+00
7.003090e-01
5.849220e-01
4.899140e-01
4.152850e-01
3.610350e-01
8.771700e-01
7.571610e-01
6.532020e-01
5.652930e-01
4.934360e-01
1.010750e+00
8.929330e-01
7.860100e-01
6.899860e-01
6.048600e-01
1.101060e+00
9.922380e-01
8.883380e-01
7.893620e-01
6.953080e-01
1.148090e+00
1.055080e+00
9.601880e-01
8.634220e-01
7.647810e-01
3.610350e-01
3.180600e-01
2.878810e-01
2.705000e-01
2.659170e-01
4.934360e-01
4.380900e-01
3.945180e-01
3.627180e-01
3.426930e-01
6.048600e-01
5.391450e-01
4.839200e-01
4.391860e-01
4.049430e-01
6.953080e-01
6.212230e-01
5.560880e-01
4.999030e-01
4.526670e-01
7.647810e-01
6.843260e-01
6.110220e-01
5.448690e-01
4.858660e-01
2.659170e-01
2.627320e-01
2.564240e-01
2.469950e-01
2.344440e-01
3.426930e-01
3.281840e-01
3.121120e-01
2.944770e-01
2.752790e-01
4.049430e-01
3.798180e-01
3.547520e-01
3.297460e-01
3.047990e-01
4.526670e-01
4.176330e-01
3.843440e-01
3.528010e-01
3.230040e-01
4.858660e-01
4.416290e-01
4.008880e-01
3.636430e-01
3.298940e-01
2.344440e-01
2.248190e-01
2.146550e-01
2.039530e-01
1.927130e-01
2.752790e-01
2.602290e-01
2.454520e-01
2.309500e-01
2.167210e-01
3.047990e-01
2.853330e-01
2.668820e-01
2.494450e-01
2.330220e-01
3.230040e-01
3.001330e-01
2.789440e-01
2.594390e-01
2.416160e-01
3.298940e-01
3.046270e-01
2.816400e-01
2.609320e-01
2.425030e-01
1.927130e-01
1.833390e-01
1.741330e-01
1.650930e-01
1.562210e-01
2.167210e-01
2.047630e-01
1.933330e-01
1.824320e-01
1.720590e-01
2.330220e-01
2.190600e-01
2.059510e-01
1.936960e-01
1.822960e-01
2.416160e-01
2.262300e-01
2.119870e-01
1.988870e-01
1.869300e-01
2.425030e-01
2.262750e-01
2.114420e-01
1.980040e-01
1.859610e-01
1.562210e-01
1.485700e-01
1.412650e-01
1.343070e-01
1.276950e-01
1.720590e-01
1.631970e-01
1.548090e-01
1.468950e-01
1.394550e-01
1.822960e-01
1.726120e-01
1.635100e-01
1.549890e-01
1.470480e-01
1.869300e-01
1.768160e-01
1.673690e-01
1.585880e-01
1.504740e-01
1.859610e-01
1.758080e-01
1.663860e-01
1.576940e-01
1.497340e-01
1.276950e-01
1.211010e-01
1.152300e-01
1.100820e-01
1.056590e-01
1.394550e-01
1.322960e-01
1.259540e-01
1.204280e-01
1.157180e-01
1.470480e-01
1.395630e-01
1.329450e-01
1.271950e-01
1.223120e-01
1.504740e-01
1.429010e-01
1.362050e-01
1.303850e-01
1.254420e-01
1.497340e-01
1.423110e-01
1.357320e-01
1.299970e-01
1.251070e-01
9.604590e-02
1.004760e-01
1.048550e-01
1.091850e-01
1.134640e-01
9.458900e-02
9.854890e-02
1.024980e-01
1.064380e-01
1.103660e-01
9.299440e-02
9.662690e-02
1.002420e-01
1.038390e-01
1.074190e-01
9.126190e-02
9.470960e-02
9.808530e-02
1.013890e-01
1.046210e-01
8.939170e-02
9.279710e-02
9.602910e-02
9.908760e-02
1.019730e-01
1.134640e-01
1.173200e-01
1.208310e-01
1.239950e-01
1.268150e-01
1.103660e-01
1.140820e-01
1.175790e-01
1.208590e-01
1.239210e-01
1.074190e-01
1.109460e-01
1.143710e-01
1.176930e-01
1.209110e-01
1.046210e-01
1.079130e-01
1.112050e-01
1.144960e-01
1.177850e-01
1.019730e-01
1.049830e-01
1.080820e-01
1.112690e-01
1.145440e-01
1.268150e-01
1.298600e-01
1.334310e-01
1.375280e-01
1.421510e-01
1.239210e-01
1.271490e-01
1.308190e-01
1.349330e-01
1.394890e-01
1.209110e-01
1.242620e-01
1.279830e-01
1.320750e-01
1.365380e-01
1.177850e-01
1.211990e-01
1.249220e-01
1.289560e-01
1.332990e-01
1.145440e-01
1.179600e-01
1.216370e-01
1.255740e-01
1.297720e-01
1.421510e-01
1.472230e-01
1.529610e-01
1.593660e-01
1.664360e-01
1.394890e-01
1.444330e-01
1.500080e-01
1.562120e-01
1.630460e-01
1.365380e-01
1.413320e-01
1.467170e-01
1.526920e-01
1.592580e-01
1.332990e-01
1.379210e-01
1.430900e-01
1.488060e-01
1.550700e-01
1.297720e-01
1.341990e-01
1.391260e-01
1.445550e-01
1.504840e-01
1.664360e-01
1.738930e-01
1.823490e-01
1.918040e-01
2.022590e-01
1.630460e-01
1.702230e-01
1.783440e-01
1.874100e-01
1.974200e-01
1.592580e-01
1.661140e-01
1.738550e-01
1.824820e-01
1.919940e-01
1.550700e-01
1.615650e-01
1.688820e-01
1.770200e-01
1.859800e-01
1.504840e-01
1.565770e-01
1.634250e-01
1.710260e-01
1.793800e-01
2.022590e-01
2.128380e-01
2.251310e-01
2.391370e-01
2.548550e-01
1.974200e-01
2.075060e-01
2.192180e-01
2.325560e-01
2.475190e-01
1.919940e-01
2.015040e-01
2.125500e-01
2.251310e-01
2.392470e-01
1.859800e-01
1.948330e-01
2.051260e-01
2.168620e-01
2.300390e-01
1.793800e-01
1.874920e-01
1.969480e-01
2.077500e-01
2.198960e-01
2.548550e-01
2.690900e-01
2.868720e-01
3.082010e-01
3.330770e-01
2.475190e-01
2.608600e-01
2.777270e-01
2.981210e-01
3.220410e-01
2.392470e-01
2.515820e-01
2.673770e-01
2.866310e-01
3.093450e-01
2.300390e-01
2.412580e-01
2.558220e-01
2.737330e-01
2.949900e-01
2.198960e-01
2.298860e-01
2.430630e-01
2.594260e-01
2.789750e-01
3.330770e-01
3.537520e-01
3.802310e-01
4.125130e-01
4.505980e-01
3.220410e-01
3.404290e-01
3.653710e-01
3.968690e-01
4.349220e-01
3.093450e-01
3.251390e-01
3.482330e-01
3.786280e-01
4.163250e-01
2.949900e-01
3.078830e-01
3.288160e-01
3.577910e-01
3.948070e-01
2.789750e-01
2.886600e-01
3.071210e-01
3.343570e-01
3.703690e-01
4.505980e-01
4.891360e-01
5.325150e-01
5.807330e-01
6.337920e-01
4.349220e-01
4.716070e-01
5.132390e-01
5.598190e-01
6.113460e-01
4.163250e-01
4.491760e-01
4.877620e-01
5.320830e-01
5.821390e-01
3.948070e-01
4.218430e-01
4.560820e-01
4.975250e-01
5.461720e-01
3.703690e-01
3.896080e-01
4.182000e-01
4.561460e-01
5.034440e-01
6.337920e-01
7.135230e-01
7.913900e-01
8.673940e-01
9.415340e-01
6.113460e-01
6.953640e-01
7.750410e-01
8.503740e-01
9.213660e-01
5.821390e-01
6.681850e-01
7.459850e-01
8.155380e-01
8.768460e-01
5.461720e-01
6.319850e-01
7.042220e-01
7.628860e-01
8.079740e-01
5.034440e-01
5.867630e-01
6.497540e-01
6.924170e-01
7.147520e-01
9.415340e-01
1.054540e+00
1.155380e+00
1.244050e+00
1.320560e+00
9.213660e-01
1.034830e+00
1.135350e+00
1.222930e+00
1.297550e+00
8.768460e-01
9.915730e-01
1.091690e+00
1.177210e+00
1.248120e+00
8.079740e-01
9.247570e-01
1.024400e+00
1.106900e+00
1.172260e+00
7.147520e-01
8.343870e-01
9.334690e-01
1.012000e+00
1.069970e+00
1.320560e+00
1.361810e+00
1.391220e+00
1.408770e+00
1.414490e+00
1.297550e+00
1.338910e+00
1.373410e+00
1.401070e+00
1.421880e+00
1.248120e+00
1.286330e+00
1.321840e+00
1.354650e+00
1.384760e+00
1.172260e+00
1.204080e+00
1.236490e+00
1.269510e+00
1.303130e+00
1.069970e+00
1.092150e+00
1.117380e+00
1.145650e+00
1.176980e+00
1.414490e+00
1.354840e+00
1.290550e+00
1.221640e+00
1.148090e+00
1.421880e+00
1.365560e+00
1.302240e+00
1.231910e+00
1.154580e+00
1.384760e+00
1.332040e+00
1.272700e+00
1.206750e+00
1.134190e+00
1.303130e+00
1.254250e+00
1.201920e+00
1.146140e+00
1.086910e+00
1.176980e+00
1.132220e+00
1.089920e+00
1.050110e+00
1.012770e+00
1.148090e+00
1.055080e+00
9.601880e-01
8.634220e-01
7.647810e-01
1.154580e+00
1.065140e+00
9.739150e-01
8.809000e-01
7.860950e-01
1.134190e+00
1.049120e+00
9.620520e-01
8.729700e-01
7.818770e-01
1.086910e+00
1.007030e+00
9.246010e-01
8.396330e-01
7.521260e-01
1.012770e+00
9.388510e-01
8.615600e-01
7.808890e-01
6.968410e-01
7.647810e-01
6.843260e-01
6.110220e-01
5.448690e-01
4.858660e-01
7.860950e-01
7.092280e-01
6.357290e-01
5.655990e-01
4.988370e-01
7.818770e-01
7.120330e-01
6.417700e-01
5.710890e-01
4.999890e-01
7.521260e-01
6.927410e-01
6.291450e-01
5.613370e-01
4.893190e-01
6.968410e-01
6.513520e-01
5.978530e-01
5.363460e-01
4.668290e-01
4.858660e-01
4.416290e-01
4.008880e-01
3.636430e-01
3.298940e-01
4.988370e-01
4.487070e-01
4.034810e-01
3.631590e-01
3.277420e-01
4.999890e-01
4.467550e-01
3.993230e-01
3.576930e-01
3.218650e-01
4.893190e-01
4.357740e-01
3.884160e-01
3.472460e-01
3.122650e-01
4.668290e-01
4.157620e-01
3.707580e-01
3.318180e-01
2.989400e-01
3.298940e-01
3.046270e-01
2.816400e-01
2.609320e-01
2.425030e-01
3.277420e-01
3.018260e-01
2.784810e-01
2.577050e-01
2.394990e-01
3.218650e-01
2.961500e-01
2.731090e-01
2.527430e-01
2.350500e-01
3.122650e-01
2.875980e-01
2.655250e-01
2.460440e-01
2.291550e-01
2.989400e-01
2.761710e-01
2.557270e-01
2.376080e-01
2.218140e-01
2.425030e-01
2.262750e-01
2.114420e-01
1.980040e-01
1.859610e-01
2.394990e-01
2.231250e-01
2.082720e-01
1.949400e-01
1.831300e-01
2.350500e-01
2.187750e-01
2.041080e-01
1.910480e-01
1.795960e-01
2.291550e-01
2.132270e-01
1.989510e-01
1.863280e-01
1.753590e-01
2.218140e-01
2.064780e-01
1.928010e-01
1.807810e-01
1.704200e-01
1.859610e-01
1.758080e-01
1.663860e-01
1.576940e-01
1.497340e-01
1.831300e-01
1.732650e-01
1.641150e-01
1.556820e-01
1.479650e-01
1.795960e-01
1.701040e-01
1.612970e-01
1.531740e-01
1.457360e-01
1.753590e-01
1.663270e-01
1.579310e-01
1.501710e-01
1.430480e-01
1.704200e-01
1.619320e-01
1.540170e-01
1.466730e-01
1.399010e-01
1.497340e-01
1.423110e-01
1.357320e-01
1.299970e-01
1.251070e-01
1.479650e-01
1.407340e-01
1.343510e-01
1.288160e-01
1.241280e-01
1.457360e-01
1.387210e-01
1.325560e-01
1.272410e-01
1.227760e-01
1.430480e-01
1.362720e-01
1.303460e-01
1.252720e-01
1.210490e-01
1.399010e-01
1.333850e-01
1.277210e-01
1.229090e-01
1.189490e-01
8.939170e-02
9.279710e-02
9.602910e-02
9.908760e-02
1.019730e-01
8.740010e-02
9.059140e-02
9.363090e-02
9.651850e-02
9.925420e-02
8.530680e-02
8.827860e-02
9.112620e-02
9.384960e-02
9.644890e-02
8.311190e-02
8.585860e-02
8.851490e-02
9.108090e-02
9.355660e-02
8.081530e-02
8.333140e-02
8.579710e-02
8.821240e-02
9.057730e-02
1.019730e-01
1.049830e-01
1.080820e-01
1.112690e-01
1.145440e-01
9.925420e-02
1.020710e-01
1.050190e-01