<?xml version="1.0"?>
<VTKFile type="UnstructuredGrid" version="0.1" byte_order="LittleEndian" compressor="vtkZLibDataCompressor">
<UnstructuredGrid>
<Piece NumberOfPoints="10000" NumberOfCells="6400">
<Points>
<DataArray type="Float32" NumberOfComponents="3" format="ascii">
-3.360000e+00 0.000000e+00 0.000000e+00
-3.276000e+00 0.000000e+00 0.000000e+00
-3.192000e+00 0.000000e+00 0.000000e+00
-3.108000e+00 0.000000e+00 0.000000e+00
-3.024000e+00 0.000000e+00 0.000000e+00
-3.360000e+00 6.412500e-02 0.000000e+00
-3.276000e+00 6.412500e-02 0.000000e+00
-3.192000e+00 6.412500e-02 0.000000e+00
-3.108000e+00 6.412500e-02 0.000000e+00
-3.024000e+00 6.412500e-02 0.000000e+00
-3.360000e+00 1.282500e-01 0.000000e+00
-3.276000e+00 1.282500e-01 0.000000e+00
-3.192000e+00 1.282500e-01 0.000000e+00
-3.108000e+00 1.282500e-01 0.000000e+00
-3.024000e+00 1.282500e-01 0.000000e+00
-3.360000e+00 1.923750e-01 0.000000e+00
-3.276000e+00 1.923750e-01 0.000000e+00
-3.192000e+00 1.923750e-01 0.000000e+00
-3.108000e+00 1.923750e-01 0.000000e+00
-3.024000e+00 1.923750e-01 0.000000e+00
-3.360000e+00 2.565000e-01 0.000000e+00
-3.276000e+00 2.565000e-01 0.000000e+00
-3.192000e+00 2.565000e-01 0.000000e+00
-3.108000e+00 2.565000e-01 0.000000e+00
-3.024000e+00 2.565000e-01 0.000000e+00
-3.024000e+00 0.000000e+00 0.000000e+00
-2.940000e+00 0.000000e+00 0.000000e+00
-2.856000e+00 0.000000e+00 0.000000e+00
-2.772000e+00 0.000000e+00 0.000000e+00
-2.688000e+00 0.000000e+00 0.000000e+00
-3.024000e+00 6.412500e-02 0.000000e+00
-2.940000e+00 6.412500e-02 0.000000e+00
-2.856000e+00 6.412500e-02 0.000000e+00
-2.772000e+00 6.412500e-02 0.000000e+00
-2.688000e+00 6.412500e-02 0.000000e+00
-3.024000e+00 1.282500e-01 0.000000e+00
-2.940000e+00 1.282500e-01 0.000000e+00
-2.856000e+00 1.282500e-01 0.000000e+00
-2.772000e+00 1.282500e-01 0.000000e+00
-2.688000e+00 1.282500e-01 0.000000e+00
-3.024000e+00 1.923750e-01 0.000000e+00
-2.940000e+00 1.923750e-01 0.000000e+00
-2.856000e+00 1.923750e-01 0.000000e+00
-2.772000e+00 1.923750e-01 0.000000e+00
-2.688000e+00 1.923750e-01 0.000000e+00
-3.024000e+00 2.565000e-01 0.000000e+00
-2.940000e+00 2.565000e-01 0.000000e+00
-2.856000e+00 2.565000e-01 0.000000e+00
-2.772000e+00 2.565000e-01 0.000000e+00
-2.688000e+00 2.565000e-01 0.000000e+00
-2.688000e+00 0.000000e+00 0.000000e+00
-2.604000e+00 0.000000e+00 0.000000e+00
-2.520000e+00 0.000000e+00 0.000000e+00
-2.436000e+00 0.000000e+00 0.000000e+00
-2.352000e+00 0.000000e+00 0.000000e+00
-2.688000e+00 6.412500e-02 0.000000e+00
-2.604000e+00 6.412500e-02 0.000000e+00
-2.520000e+00 6.412500e-02 0.000000e+00
-2.436000e+00 6.412500e-02 0.000000e+00
-2.352000e+00 6.412500e-02 0.000000e+00
-2.688000e+00 1.282500e-01 0.000000e+00
-2.604000e+00 1.282500e-01 0.000000e+00
-2.520000e+00 1.282500e-01 0.000000e+00
-2.436000e+00 1.282500e-01 0.000000e+00
-2.352000e+00 1.282500e-01 0.000000e+00
-2.688000e+00 1.923750e-01 0.000000e+00
-2.604000e+00 1.923750e-01 0.000000e+00
-2.520000e+00 1.923750e-01 0.000000e+00
-2.436000e+00 1.923750e-01 0.000000e+00
-2.352000e+00 1.923750e-01 0.000000e+00
-2.688000e+00 2.565000e-01 0.000000e+00
-2.604000e+00 2.565000e-01 0.000000e+00
-2.520000e+00 2.565000e-01 0.000000e+00
-2.436000e+00 2.565000e-01 0.000000e+00
-2.352000e+00 2.565000e-01 0.000000e+00
-2.352000e+00 0.000000e+00 0.000000e+00
-2.268000e+00 0.000000e+00 0.000000e+00
-2.184000e+00 0.000000e+00 0.000000e+00
-2.100000e+00 0.000000e+00 0.000000e+00
-2.016000e+00 0.000000e+00 0.000000e+00
-2.352000e+00 6.412500e-02 0.000000e+00
-2.268000e+00 6.412500e-02 0.000000e+00
-2.184000e+00 6.412500e-02 0.000000e+00
-2.100000e+00 6.412500e-02 0.000000e+00
-2.016000e+00 6.412500e-02 0.000000e+00
-2.352000e+00 1.282500e-01 0.000000e+00
-2.268000e+00 1.282500e-01 0.000000e+00
-2.184000e+00 1.282500e-01 0.000000e+00
-2.100000e+00 1.282500e-01 0.000000e+00
-2.016000e+00 1.282500e-01 0.000000e+00
-2.352000e+00 1.923750e-01 0.000000e+00
-2.268000e+00 1.923750e-01 0.000000e+00
-2.184000e+00 1.923750e-01 0.000000e+00
-2.100000e+00 1.923750e-01 0.000000e+00
-2.016000e+00 1.923750e-01 0.000000e+00
-2.352000e+00 2.565000e-01 0.000000e+00
-2.268000e+00 2.565000e-01 0.000000e+00
-2.184000e+00 2.565000e-01 0.000000e+00
-2.100000e+00 2.565000e-01 0.000000e+00
-2.016000e+00 2.565000e-01 0.000000e+00
-2.016000e+00 0.000000e+00 0.000000e+00
-1.932000e+00 0.000000e+00 0.000000e+00
-1.848000e+00 0.000000e+00 0.000000e+00
-1.764000e+00 0.000000e+00 0.000000e+00
-1.680000e+00 0.000000e+00 0.000000e+00
-2.016000e+00 6.412500e-02 0.000000e+00
-1.932000e+00 6.412500e-02 0.000000e+00
-1.848000e+00 6.412500e-02 0.000000e+00
-1.764000e+00 6.412500e-02 0.000000e+00
-1.680000e+00 6.412500e-02 0.000000e+00
-2.016000e+00 1.282500e-01 0.000000e+00
-1.932000e+00 1.282500e-01 0.000000e+00
-1.848000e+00 1.282500e-01 0.000000e+00
-1.764000e+00 1.282500e-01 0.000000e+00
-1.680000e+00 1.282500e-01 0.000000e+00
-2.016000e+00 1.923750e-01 0.000000e+00
-1.932000e+00 1.923750e-01 0.000000e+00
-1.848000e+00 1.923750e-01 0.000000e+00
-1.764000e+00 1.923750e-01 0.000000e+00
-1.680000e+00 1.923750e-01 0.000000e+00
-2.016000e+00 2.565000e-01 0.000000e+00
-1.932000e+00 2.565000e-01 0.000000e+00
-1.848000e+00 2.565000e-01 0.000000e+00
-1.764000e+00 2.565000e-01 0.000000e+00
-1.680000e+00 2.565000e-01 0.000000e+00
-1.680000e+00 0.000000e+00 0.000000e+00
-1.596000e+00 0.000000e+00 0.000000e+00
-1.512000e+00 0.000000e+00 0.000000e+00
-1.428000e+00 0.000000e+00 0.000000e+00
-1.344000e+00 0.000000e+00 0.000000e+00
-1.680000e+00 6.412500e-02 0.000000e+00
-1.596000e+00 6.412500e-02 0.000000e+00
-1.512000e+00 6.412500e-02 0.000000e+00
-1.428000e+00 6.412500e-02 0.000000e+00
-1.344000e+00 6.412500e-02 0.000000e+00
-1.680000e+00 1.282500e-01 0.000000e+00
-1.596000e+00 1.282500e-01 0.000000e+00
-1.512000e+00 1.282500e-01 0.000000e+00
-1.428000e+00 1.282500e-01 0.000000e+00
-1.344000e+00 1.282500e-01 0.000000e+00
-1.680000e+00 1.923750e-01 0.000000e+00
-1.596000e+00 1.923750e-01 0.000000e+00
-1.512000e+00 1.923750e-01 0.000000e+00
-1.428000e+00 1.923750e-01 0.000000e+00
-1.344000e+00 1.923750e-01 0.000000e+00
-1.680000e+00 2.565000e-01 0.000000e+00
-1.596000e+00 2.565000e-01 0.000000e+00
-1.512000e+00 2.565000e-01 0.000000e+00
-1.428000e+00 2.565000e-01 0.000000e+00
-1.344000e+00 2.565000e-01 0.000000e+00
-1.344000e+00 0.000000e+00 0.000000e+00
-1.260000e+00 0.000000e+00 0.000000e+00
-1.176000e+00 0.000000e+00 0.000000e+00
-1.092000e+00 0.000000e+00 0.000000e+00
-1.008000e+00 0.000000e+00 0.000000e+00
-1.344000e+00 6.412500e-02 0.000000e+00
-1.260000e+00 6.412500e-02 0.000000e+00
-1.176000e+00 6.412500e-02 0.000000e+00
-1.092000e+00 6.412500e-02 0.000000e+00
-1.008000e+00 6.412500e-02 0.000000e+00
-1.344000e+00 1.282500e-01 0.000000e+00
-1.260000e+00 1.282500e-01 0.000000e+00
-1.176000e+00 1.282500e-01 0.000000e+00
-1.092000e+00 1.282500e-01 0.000000e+00
-1.008000e+00 1.282500e-01 0.000000e+00
-1.344000e+00 1.923750e-01 0.000000e+00
-1.260000e+00 1.923750e-01 0.000000e+00
-1.176000e+00 1.923750e-01 0.000000e+00
-1.092000e+00 1.923750e-01 0.000000e+00
-1.008000e+00 1.923750e-01 0.000000e+00
-1.344000e+00 2.565000e-01 0.000000e+00
-1.260000e+00 2.565000e-01 0.000000e+00
-1.176000e+00 2.565000e-01 0.000000e+00
-1.092000e+00 2.565000e-01 0.000000e+00
-1.008000e+00 2.565000e-01 0.000000e+00
-1.008000e+00 0.000000e+00 0.000000e+00
-9.240000e-01 0.000000e+00 0.000000e+00
-8.400000e-01 0.000000e+00 0.000000e+00
-7.560000e-01 0.000000e+00 0.000000e+00
-6.720000e-01 0.000000e+00 0.000000e+00
-1.008000e+00 6.412500e-02 0.000000e+00
-9.240000e-01 6.412500e-02 0.000000e+00
-8.400000e-01 6.412500e-02 0.000000e+00
-7.560000e-01 6.412500e-02 0.000000e+00
-6.720000e-01 6.412500e-02 0.000000e+00
-1.008000e+00 1.282500e-01 0.000000e+00
-9.240000e-01 1.282500e-01 0.000000e+00
-8.400000e-01 1.282500e-01 0.000000e+00
-7.560000e-01 1.282500e-01 0.000000e+00
-6.720000e-01 1.282500e-01 0.000000e+00
-1.008000e+00 1.923750e-01 0.000000e+00
-9.240000e-01 1.923750e-01 0.000000e+00
-8.400000e-01 1.923750e-01 0.000000e+00
-7.560000e-01 1.923750e-01 0.000000e+00
-6.720000e-01 1.923750e-01 0.000000e+00
-1.008000e+00 2.565000e-01 0.000000e+00
-9.240000e-01 2.565000e-01 0.000000e+00
-8.400000e-01 2.565000e-01 0.000000e+00
-7.560000e-01 2.565000e-01 0.000000e+00
-6.720000e-01 2.565000e-01 0.000000e+00
-6.720000e-01 0.000000e+00 0.000000e+00
-5.880000e-01 0.000000e+00 0.000000e+00
-5.040000e-01 0.000000e+00 0.000000e+00
-4.200000e-01 0.000000e+00 0.000000e+00
-3.360000e-01 0.000000e+00 0.000000e+00
-6.720000e-01 6.412500e-02 0.000000e+00
-5.880000e-01 6.412500e-02 0.000000e+00
-5.040000e-01 6.412500e-02 0.000000e+00
-4.200000e-01 6.412500e-02 0.000000e+00
-3.360000e-01 6.412500e-02 0.000000e+00
-6.720000e-01 1.282500e-01 0.000000e+00
-5.880000e-01 1.282500e-01 0.000000e+00
-5.040000e-01 1.282500e-01 0.000000e+00
-4.200000e-01 1.282500e-01 0.000000e+00
-3.360000e-01 1.282500e-01 0.000000e+00
-6.720000e-01 1.923750e-01 0.000000e+00
-5.880000e-01 1.923750e-01 0.000000e+00
-5.040000e-01 1.923750e-01 0.000000e+00
-4.200000e-01 1.923750e-01 0.000000e+00
-3.360000e-01 1.923750e-01 0.000000e+00
-6.720000e-01 2.565000e-01 0.000000e+00
-5.880000e-01 2.565000e-01 0.000000e+00
-5.040000e-01 2.565000e-01 0.000000e+00
-4.200000e-01 2.565000e-01 0.000000e+00
-3.360000e-01 2.565000e-01 0.000000e+00
-3.360000e-01 0.000000e+00 0.000000e+00
-2.520000e-01 0.000000e+00 0.000000e+00
-1.680000e-01 0.000000e+00 0.000000e+00
-8.400000e-02 0.000000e+00 0.000000e+00
-4.440890e-16 0.000000e+00 0.000000e+00
-3.360000e-01 6.412500e-02 0.000000e+00
-2.520000e-01 6.412500e-02 0.000000e+00
-1.680000e-01 6.412500e-02 0.000000e+00
-8.400000e-02 6.412500e-02 0.000000e+00
-4.440890e-16 6.412500e-02 0.000000e+00
-3.360000e-01 1.282500e-01 0.000000e+00
-2.520000e-01 1.282500e-01 0.000000e+00
-1.680000e-01 1.282500e-01 0.000000e+00
-8.400000e-02 1.282500e-01 0.000000e+00
-4.440890e-16 1.282500e-01 0.000000e+00
-3.360000e-01 1.923750e-01 0.000000e+00
-2.520000e-01 1.923750e-01 0.000000e+00
-1.680000e-01 1.923750e-01 0.000000e+00
[...]
<PointData>
<DataArray type="Float32" Name="V1" format="ascii">
0.000000e+00
0.000000e+00
0.000000e+00
0.000000e+00
0.000000e+00
6.347820e-02
5.990580e-02
5.665580e-02
5.372810e-02
5.112270e-02
1.013490e-01
9.810300e-02
9.486240e-02
9.162690e-02
8.839630e-02
1.136110e-01
1.145910e-01
1.146200e-01
1.136960e-01
1.118210e-01
1.002660e-01
1.093710e-01
1.159280e-01
1.199360e-01
1.213960e-01
0.000000e+00
0.000000e+00
0.000000e+00
0.000000e+00
0.000000e+00
5.112270e-02
4.855530e-02
4.740500e-02
4.767180e-02
4.935580e-02
8.839630e-02
8.520470e-02
8.401220e-02
8.481860e-02
8.762410e-02
1.118210e-01
1.099480e-01
1.098220e-01
1.114400e-01
1.148050e-01
1.213960e-01
1.227860e-01
1.248330e-01
1.275370e-01
1.308980e-01
0.000000e+00
0.000000e+00
0.000000e+00
0.000000e+00
0.000000e+00
4.935580e-02
5.106420e-02
5.300140e-02
5.516750e-02
5.756240e-02
8.762410e-02
9.059310e-02
9.400920e-02
9.787250e-02
1.021830e-01
1.148050e-01
1.185870e-01
1.230240e-01
1.281150e-01
1.338610e-01
1.308980e-01
1.350450e-01
1.400440e-01
1.458950e-01
1.525980e-01
0.000000e+00
0.000000e+00
0.000000e+00
0.000000e+00
0.000000e+00
5.756240e-02
6.008540e-02
6.318810e-02
6.687060e-02
7.113270e-02
1.021830e-01
1.067300e-01
1.122180e-01
1.186470e-01
1.260160e-01
1.338610e-01
1.399350e-01
1.470900e-01
1.553280e-01
1.646490e-01
1.525980e-01
1.596980e-01
1.678040e-01
1.769160e-01
1.870320e-01
0.000000e+00
0.000000e+00
0.000000e+00
0.000000e+00
0.000000e+00
7.113270e-02
7.555000e-02
8.084730e-02
8.702470e-02
9.408210e-02
1.260160e-01
1.336470e-01
1.427390e-01
1.532920e-01
1.653060e-01
1.646490e-01
1.742910e-01
1.856750e-01
1.988020e-01
2.136720e-01
1.870320e-01
1.974810e-01
2.096550e-01
2.235550e-01
2.391800e-01
0.000000e+00
0.000000e+00
0.000000e+00
0.000000e+00
0.000000e+00
9.408210e-02
1.008830e-01
1.094630e-01
1.198220e-01
1.319600e-01
1.653060e-01
1.768850e-01
1.913400e-01
2.086690e-01
2.288740e-01
2.136720e-01
2.280060e-01
2.456290e-01
2.665410e-01
2.907420e-01
2.391800e-01
2.542470e-01
2.723320e-01
2.934380e-01
3.175630e-01
0.000000e+00
0.000000e+00
0.000000e+00
0.000000e+00
0.000000e+00
1.319600e-01
1.430290e-01
1.570630e-01
1.740620e-01
1.940270e-01
2.288740e-01
2.473820e-01
2.705640e-01
2.984180e-01
3.309460e-01
2.907420e-01
3.130610e-01
3.405030e-01
3.730690e-01
4.107580e-01
3.175630e-01
3.400640e-01
3.668820e-01
3.980140e-01
4.334630e-01
0.000000e+00
0.000000e+00
0.000000e+00
0.000000e+00
0.000000e+00
1.940270e-01
2.137300e-01
2.361190e-01
2.611930e-01
2.889530e-01
3.309460e-01
3.634070e-01
4.000060e-01
4.407420e-01
4.856170e-01
4.107580e-01
4.490310e-01
4.916600e-01
5.386470e-01
5.899910e-01
4.334630e-01
4.706020e-01
5.110830e-01
5.549080e-01
6.020760e-01
0.000000e+00
0.000000e+00
0.000000e+00
0.000000e+00
0.000000e+00
2.889530e-01
3.229230e-01
3.555430e-01
3.868140e-01
4.167350e-01
4.856170e-01
5.407420e-01
5.940650e-01
6.455860e-01
6.953040e-01
5.899910e-01
6.534570e-01
7.155660e-01
7.763160e-01
8.357070e-01
6.020760e-01
6.610700e-01
7.200460e-01
7.790040e-01
8.379440e-01
0.000000e+00
0.000000e+00
0.000000e+00
0.000000e+00
0.000000e+00
4.167350e-01
4.595640e-01
4.930550e-01
5.172070e-01
5.320200e-01
6.953040e-01
7.660870e-01
8.234140e-01
8.672860e-01
8.977020e-01
8.357070e-01
9.195680e-01
9.910770e-01
1.050240e+00
1.097050e+00
8.379440e-01
9.200060e-01
9.960450e-01
1.066060e+00
1.130050e+00
0.000000e+00
0.000000e+00
0.000000e+00
0.000000e+00
0.000000e+00
5.320200e-01
5.401930e-01
5.388870e-01
5.281030e-01
5.078400e-01
8.977020e-01
9.184590e-01
9.248150e-01
9.167700e-01
8.943240e-01
1.097050e+00
1.134800e+00
1.157780e+00
1.166000e+00
1.159450e+00
1.130050e+00
1.189210e+00
1.237790e+00
1.275800e+00
1.303220e+00
0.000000e+00
0.000000e+00
0.000000e+00
0.000000e+00
0.000000e+00
5.078400e-01
4.563550e-01
4.036100e-01
3.496040e-01
2.943390e-01
8.943240e-01
8.216530e-01
7.443570e-01
6.624360e-01
5.758910e-01
1.159450e+00
1.095890e+00
1.022240e+00
9.384950e-01
8.446560e-01
1.303220e+00
1.279080e+00
1.237260e+00
1.177780e+00
1.100630e+00
0.000000e+00
0.000000e+00
0.000000e+00
0.000000e+00
0.000000e+00
2.943390e-01
2.417390e-01
1.999060e-01
1.688410e-01
1.485430e-01
5.758910e-01
4.877230e-01
4.150160e-01
3.577680e-01
3.159810e-01
8.446560e-01
7.379540e-01
6.453290e-01
5.667830e-01
5.023140e-01
1.100630e+00
9.924300e-01
8.908470e-01
7.958840e-01
7.075420e-01
0.000000e+00
0.000000e+00
0.000000e+00
0.000000e+00
0.000000e+00
1.485430e-01
1.294860e-01
1.171890e-01
1.116530e-01
1.128780e-01
3.159810e-01
2.779280e-01
2.507840e-01
2.345500e-01
2.292260e-01
5.023140e-01
4.453260e-01
4.007850e-01
3.686910e-01
3.490430e-01
7.075420e-01
6.316810e-01
5.671930e-01
5.140760e-01
4.723300e-01
0.000000e+00
0.000000e+00
0.000000e+00
0.000000e+00
0.000000e+00
1.128780e-01
1.148090e-01
1.143610e-01
1.115360e-01
1.063320e-01
2.292260e-01
2.271110e-01
2.217720e-01
2.132060e-01
2.014150e-01
3.490430e-01
3.369080e-01
3.222310e-01
3.050120e-01
2.852510e-01
4.723300e-01
4.441990e-01
4.157400e-01
3.869540e-01
3.578400e-01
0.000000e+00
0.000000e+00
0.000000e+00
0.000000e+00
0.000000e+00
1.063320e-01
1.036560e-01
9.999320e-02
9.534240e-02
8.970400e-02
2.014150e-01
1.937100e-01
1.849250e-01
1.750620e-01
1.641190e-01
2.852510e-01
2.701600e-01
2.547960e-01
2.391580e-01
2.232460e-01
3.578400e-01
3.330080e-01
3.096050e-01
2.876310e-01
2.670850e-01
0.000000e+00
0.000000e+00
0.000000e+00
0.000000e+00
0.000000e+00
8.970400e-02
8.571840e-02
8.157510e-02
7.727430e-02
7.281580e-02
1.641190e-01
1.560040e-01
1.478260e-01
1.395860e-01
1.312840e-01
2.232460e-01
2.108570e-01
1.987540e-01
1.869360e-01
1.754040e-01
2.670850e-01
2.502770e-01
2.343570e-01
2.193240e-01
2.051770e-01
0.000000e+00
0.000000e+00
0.000000e+00
0.000000e+00
0.000000e+00
7.281580e-02
6.928700e-02
6.581120e-02
6.238840e-02
5.901840e-02
1.312840e-01
1.245270e-01
1.179820e-01
1.116480e-01
1.055260e-01
1.754040e-01
1.657200e-01
1.565120e-01
1.477790e-01
1.395220e-01
2.051770e-01
1.928660e-01
1.814010e-01
1.707810e-01
1.610070e-01
0.000000e+00
0.000000e+00
0.000000e+00
0.000000e+00
0.000000e+00
5.901840e-02
5.609400e-02
5.326550e-02
5.053290e-02
4.789620e-02
1.055260e-01
1.001450e-01
9.499250e-02
9.006820e-02
8.537200e-02
1.395220e-01
1.321530e-01
1.251810e-01
1.186060e-01
1.124270e-01
1.610070e-01
1.521180e-01
1.438310e-01
1.361460e-01
1.290620e-01
0.000000e+00
0.000000e+00
0.000000e+00
0.000000e+00
0.000000e+00
4.789620e-02
4.588520e-02
4.335180e-02
4.029590e-02
3.671760e-02
8.537200e-02
8.149600e-02
7.707140e-02
7.209790e-02
6.657580e-02
1.124270e-01
1.068320e-01
1.011590e-01
9.540600e-02
8.957450e-02
1.290620e-01
1.218940e-01
1.156140e-01
1.102200e-01
1.057140e-01
1.002660e-01
1.093710e-01
1.159280e-01
1.199360e-01
1.213960e-01
9.945850e-02
1.073610e-01
1.137230e-01
1.185460e-01
1.218290e-01
9.848610e-02
1.051780e-01
1.110930e-01
1.162320e-01
1.205950e-01
9.734850e-02
1.028220e-01
1.080370e-01
1.129940e-01
1.176940e-01
9.604590e-02
1.002930e-01
1.045550e-01
1.088330e-01
1.131270e-01
1.213960e-01
1.227860e-01
1.248330e-01
1.275370e-01
1.308980e-01
1.218290e-01
1.245720e-01
1.276400e-01
1.310330e-01
1.347500e-01
1.205950e-01
1.242750e-01
1.280530e-01
1.319280e-01
1.359000e-01
1.176940e-01
1.218960e-01
1.260720e-01
1.302230e-01
1.343480e-01
1.131270e-01
1.174340e-01
1.216980e-01
1.259180e-01
1.300950e-01
1.308980e-01
1.350450e-01
1.400440e-01
1.458950e-01
1.525980e-01
1.347500e-01
1.390250e-01
1.441340e-01
1.500760e-01
1.568520e-01
1.359000e-01
1.402750e-01
1.454350e-01
1.513820e-01
1.581150e-01
1.343480e-01
1.387940e-01
1.439480e-01
1.498130e-01
1.563870e-01
1.300950e-01
1.345820e-01
1.396730e-01
1.453690e-01
1.516690e-01
1.525980e-01
1.596980e-01
1.678040e-01
1.769160e-01
1.870320e-01
1.568520e-01
1.640570e-01
1.722380e-01
1.813960e-01
1.915300e-01
1.581150e-01
1.652880e-01
1.734010e-01
1.824520e-01
1.924420e-01
1.563870e-01
1.633940e-01
1.712930e-01
1.800850e-01
1.897680e-01
1.516690e-01
1.583730e-01
1.659150e-01
1.742930e-01
1.835080e-01
1.870320e-01
1.974810e-01
2.096550e-01
2.235550e-01
2.391800e-01
1.915300e-01
2.019110e-01
2.139790e-01
2.277340e-01
2.431760e-01
1.924420e-01
2.026340e-01
2.144460e-01
2.278770e-01
2.429280e-01
1.897680e-01
1.996520e-01
2.110580e-01
2.239850e-01
2.384350e-01
1.835080e-01
1.929630e-01
2.038130e-01
2.160580e-01
2.296980e-01
2.391800e-01
2.542470e-01
2.723320e-01
2.934380e-01
3.175630e-01
2.431760e-01
2.578590e-01
2.756000e-01
2.964000e-01
3.202580e-01
2.429280e-01
2.571400e-01
2.743720e-01
2.946240e-01
3.178960e-01
2.384350e-01
2.520890e-01
2.686470e-01
2.881090e-01
3.104760e-01
2.296980e-01
2.427060e-01
2.584250e-01
2.768560e-01
2.979980e-01
3.175630e-01
3.400640e-01
3.668820e-01
3.980140e-01
4.334630e-01
3.202580e-01
3.417550e-01
3.679800e-01
3.989350e-01
4.346180e-01
3.178960e-01
3.382420e-01
3.636420e-01
3.940950e-01
4.296000e-01
3.104760e-01
3.295280e-01
3.538680e-01
3.834940e-01
4.184080e-01
2.979980e-01
3.156110e-01
3.386570e-01
3.671340e-01
4.010440e-01
4.334630e-01
4.706020e-01
5.110830e-01
5.549080e-01
6.020760e-01
4.346180e-01
4.703300e-01
5.104400e-01
5.549490e-01
6.038570e-01
4.296000e-01
4.634030e-01
5.026260e-01
5.472690e-01
5.973320e-01
4.184080e-01
4.498210e-01
4.876400e-01
5.318670e-01
5.825000e-01
4.010440e-01
4.295840e-01
4.654830e-01
5.087430e-01
5.593620e-01
6.020760e-01
6.610700e-01
7.200460e-01
7.790040e-01
8.379440e-01
6.038570e-01
6.654450e-01
7.271420e-01
7.889470e-01
8.508620e-01
5.973320e-01
6.603580e-01
7.238040e-01
7.876680e-01
8.519500e-01
5.825000e-01
6.458110e-01
7.100320e-01
7.751640e-01
8.412080e-01
5.593620e-01
6.218010e-01
6.858270e-01
7.514380e-01
8.186350e-01
8.379440e-01
9.200060e-01
9.960450e-01
1.066060e+00
1.130050e+00
8.508620e-01
9.399410e-01
1.022160e+00
1.097510e+00
1.166000e+00
8.519500e-01
9.483720e-01
1.038060e+00
1.121020e+00
1.197250e+00
8.412080e-01
9.453000e-01
1.043760e+00
1.136590e+00
1.223800e+00
8.186350e-01
9.307260e-01
1.039260e+00
1.144230e+00
1.245640e+00
1.130050e+00
1.189210e+00
1.237790e+00
1.275800e+00
1.303220e+00
1.166000e+00
1.237400e+00
1.296160e+00
1.342300e+00
1.375820e+00
1.197250e+00
1.281880e+00
1.351470e+00
1.406030e+00
1.445550e+00
1.223800e+00
1.322660e+00
1.403720e+00
1.466970e+00
1.512420e+00
1.245640e+00
1.359740e+00
1.452910e+00
1.525130e+00
1.576420e+00
1.303220e+00
1.279080e+00
1.237260e+00
1.177780e+00
1.100630e+00
1.375820e+00
1.351890e+00
1.316570e+00
1.269850e+00
1.211750e+00
1.445550e+00
1.415820e+00
1.379030e+00
1.335180e+00
1.284270e+00
1.512420e+00
1.470880e+00
1.424660e+00
1.373770e+00
1.318220e+00
1.576420e+00
1.517050e+00
1.453450e+00
1.385620e+00
1.313570e+00
1.100630e+00
9.924300e-01
8.908470e-01
7.958840e-01
7.075420e-01
1.211750e+00
1.118540e+00
1.025660e+00
9.331090e-01
8.408870e-01
1.284270e+00
1.199350e+00
1.111540e+00
1.020840e+00
9.272510e-01
1.318220e+00
1.234860e+00
1.148470e+00
1.059070e+00
9.666360e-01
1.313570e+00
1.225070e+00
1.136480e+00
1.047800e+00
9.590410e-01
7.075420e-01
6.316810e-01
5.671930e-01
5.140760e-01
4.723300e-01
8.408870e-01
7.561080e-01
6.793760e-01
6.106900e-01
5.500520e-01
9.272510e-01
8.382780e-01
7.539770e-01
6.743490e-01
5.993950e-01
9.666360e-01
8.781910e-01
7.909970e-01
7.050530e-01
6.203600e-01
9.590410e-01
8.758490e-01
7.904360e-01
7.028020e-01
6.129470e-01
4.723300e-01
4.441990e-01
4.157400e-01
3.869540e-01
3.578400e-01
5.500520e-01
5.076600e-01
4.672460e-01
4.288100e-01
3.923500e-01
5.993950e-01
5.467330e-01
4.978940e-01
4.528780e-01
4.116850e-01
6.203600e-01
5.614170e-01
5.076830e-01
4.591590e-01
4.158420e-01
6.129470e-01
5.517130e-01
4.966140e-01
4.476510e-01
4.048240e-01
3.578400e-01
3.330080e-01
3.096050e-01
2.876310e-01
2.670850e-01
3.923500e-01
3.615350e-01
3.331890e-01
3.073150e-01
2.839100e-01
4.116850e-01
3.768000e-01
3.451890e-01
3.168510e-01
2.917860e-01
4.158420e-01
3.788060e-01
3.456050e-01
3.162410e-01
2.907120e-01
4.048240e-01
3.675510e-01
3.344370e-01
3.054830e-01
2.806880e-01
2.670850e-01
2.502770e-01
2.343570e-01
2.193240e-01
2.051770e-01
2.839100e-01
2.651300e-01
2.475020e-01
2.310270e-01
2.157060e-01
2.917860e-01
2.720310e-01
2.535710e-01
2.364060e-01
2.205360e-01
2.907120e-01
2.709820e-01
2.525650e-01
2.354590e-01
2.196670e-01
2.806880e-01
2.619820e-01
2.444820e-01
2.281880e-01
2.131000e-01
2.051770e-01
1.928660e-01
1.814010e-01
1.707810e-01
1.610070e-01
2.157060e-01
2.023430e-01
1.899810e-01
1.786210e-01
1.682620e-01
2.205360e-01
2.066020e-01
1.937860e-01
1.820850e-01
1.715020e-01
2.196670e-01
2.056450e-01
1.928140e-01
1.811750e-01
1.707270e-01
2.131000e-01
1.994710e-01
1.870670e-01
1.758890e-01
1.659360e-01
1.610070e-01
1.521180e-01
1.438310e-01
1.361460e-01
1.290620e-01
1.682620e-01
1.588840e-01
1.501570e-01
1.420810e-01
1.346570e-01
1.715020e-01
1.619270e-01
1.530360e-01
1.448270e-01
1.373010e-01
1.707270e-01
1.612490e-01
1.524670e-01
1.443830e-01
1.369950e-01
1.659360e-01
1.568470e-01
1.484510e-01
1.407490e-01
1.337390e-01
1.290620e-01
1.218940e-01
1.156140e-01
1.102200e-01
1.057140e-01
1.346570e-01
1.274360e-01
1.210640e-01
1.155420e-01
1.108690e-01
1.373010e-01
1.301780e-01
1.238440e-01
1.182980e-01
1.135390e-01
1.369950e-01
1.301230e-01
1.239540e-01
1.184880e-01
1.137250e-01
1.337390e-01
1.272700e-01
1.213940e-01
1.161130e-01
1.114250e-01
9.604590e-02
1.002930e-01
1.045550e-01
1.088330e-01
1.131270e-01
9.458900e-02
9.848530e-02
1.024430e-01
1.064620e-01
1.105420e-01
9.299440e-02
9.664340e-02
1.003580e-01
1.041390e-01
1.079860e-01
9.126190e-02
9.476720e-02
9.830150e-02
1.018650e-01
1.054570e-01
8.939170e-02
9.285670e-02
9.627240e-02
9.963890e-02
1.029560e-01
1.131270e-01
1.174340e-01
1.216980e-01
1.259180e-01
1.300950e-01
1.105420e-01
1.147180e-01
1.189180e-01
1.231400e-01
1.273870e-01
1.079860e-01
1.119940e-01
1.160860e-01
1.202600e-01
1.245160e-01
1.054570e-01
1.092630e-01
1.132020e-01
1.172760e-01
1.214830e-01
1.029560e-01
1.065230e-01
1.102680e-01
1.141890e-01
1.182870e-01
1.300950e-01
1.345820e-01
1.396730e-01
1.453690e-01
1.516690e-01
1.273870e-01
1.318950e-01
1.369430e-01
1.425320e-01
1.486620e-01
1.245160e-01
1.289980e-01
1.339610e-01
1.394050e-01
1.453290e-01
1.214830e-01
1.258930e-01
1.307280e-01
1.359870e-01
1.416710e-01
1.182870e-01
1.225790e-01
1.272430e-01
1.322790e-01
1.376860e-01
1.516690e-01
1.583730e-01
1.659150e-01
1.742930e-01
1.835080e-01
1.486620e-01
1.551440e-01
1.624170e-01
1.704800e-01
1.793340e-01
1.453290e-01
1.515530e-01
1.585170e-01
1.662220e-01
1.746680e-01
1.416710e-01
1.475990e-01
1.542150e-01
1.615190e-01
1.695110e-01
1.376860e-01
1.432830e-01
1.495110e-01
1.563710e-01
1.638630e-01
1.835080e-01
1.929630e-01
2.038130e-01
2.160580e-01
2.296980e-01
1.793340e-01
1.884070e-01
1.987760e-01
2.104390e-01
2.233970e-01
1.746680e-01
1.832850e-01
1.931040e-01
2.041230e-01
2.163430e-01
1.695110e-01
1.775960e-01
1.867950e-01
1.971090e-01
2.085360e-01
1.638630e-01
1.713410e-01
1.798520e-01
1.893970e-01
1.999750e-01
2.296980e-01
2.427060e-01
2.584250e-01
2.768560e-01
2.979980e-01
2.233970e-01
2.358190e-01
2.507440e-01
2.681730e-01
2.881060e-01
2.163430e-01
2.280070e-01
2.420070e-01
2.583410e-01
2.770110e-01
2.085360e-01
2.192710e-01
2.322120e-01
2.473590e-01
2.647120e-01
1.999750e-01
2.096100e-01
2.213610e-01
2.352280e-01
2.512100e-01
2.979980e-01
3.156110e-01
3.386570e-01
3.671340e-01
4.010440e-01
2.881060e-01
3.041100e-01
3.258090e-01
3.532050e-01
3.862960e-01
2.770110e-01
2.911920e-01
3.113340e-01
3.374340e-01
3.694940e-01
2.647120e-01
2.768590e-01
2.952290e-01
3.198220e-01
3.506380e-01
2.512100e-01
2.611100e-01
2.774960e-01
3.003690e-01
3.297280e-01
4.010440e-01
4.295840e-01
4.654830e-01
5.087430e-01
5.593620e-01
3.862960e-01
4.113400e-01
4.449010e-01
4.869800e-01
5.375770e-01
3.694940e-01
3.895940e-01
4.201480e-01
4.611540e-01
5.126130e-01
3.506380e-01
3.643480e-01
3.912240e-01
4.312650e-01
4.844720e-01
3.297280e-01
3.356000e-01
3.581280e-01
3.973120e-01
4.531530e-01
5.593620e-01
6.218010e-01
6.858270e-01
7.514380e-01
8.186350e-01
5.375770e-01
6.001040e-01
6.629820e-01
7.262110e-01
7.897900e-01
5.126130e-01
5.707110e-01
6.291350e-01
6.878850e-01
7.469620e-01
4.844720e-01
5.336210e-01
5.842840e-01
6.364610e-01
6.901510e-01
4.531530e-01
4.888350e-01
5.284300e-01
5.719380e-01
6.193570e-01
8.186350e-01
9.307260e-01
1.039260e+00
1.144230e+00
1.245640e+00
7.897900e-01
9.306460e-01
1.061210e+00
1.181470e+00
1.291440e+00
7.469620e-01
9.105120e-01
1.050380e+00
1.166580e+00
1.259090e+00
6.901510e-01
8.703240e-01
1.006790e+00
1.099540e+00
1.148580e+00
6.193570e-01
8.100820e-01
9.304180e-01
9.803640e-01
9.599220e-01
1.245640e+00
1.359740e+00
1.452910e+00
1.525130e+00
1.576420e+00
1.291440e+00
1.397190e+00
1.485640e+00
1.556790e+00
1.610630e+00
1.259090e+00
1.353440e+00
1.436110e+00
1.507110e+00
1.566420e+00
1.148580e+00
1.228480e+00
1.304310e+00
1.376080e+00
1.443780e+00
9.599220e-01
1.022310e+00
1.090240e+00
1.163710e+00
1.242720e+00
1.576420e+00
1.517050e+00
1.453450e+00
1.385620e+00
1.313570e+00
1.610630e+00
1.553220e+00
1.486890e+00
1.411650e+00
1.327510e+00
1.566420e+00
1.506090e+00
1.440340e+00
1.369140e+00
1.292520e+00
1.443780e+00
1.375690e+00
1.313790e+00
1.258090e+00
1.208590e+00
1.242720e+00
1.161990e+00
1.107250e+00
1.078490e+00
1.075730e+00
1.313570e+00
1.225070e+00
1.136480e+00
1.047800e+00
9.590410e-01
1.327510e+00
1.215490e+00
1.108180e+00
1.005580e+00
9.076890e-01
1.292520e+00
1.173630e+00
1.059070e+00
9.488460e-01
8.429580e-01
1.208590e+00
1.099480e+00
9.891540e-01
8.776090e-01
7.648480e-01
1.075730e+00
9.930520e-01
8.984310e-01
7.918670e-01
6.733580e-01
9.590410e-01
8.758490e-01
7.904360e-01
7.028020e-01
6.129470e-01
9.076890e-01
8.294880e-01
7.482060e-01
6.638430e-01
5.763980e-01
8.429580e-01
7.712040e-01
6.957950e-01
6.167310e-01
5.340120e-01
7.648480e-01
7.009970e-01
6.332040e-01
5.614670e-01
4.857860e-01
6.733580e-01
6.188680e-01
5.604320e-01
4.980500e-01
4.317220e-01
6.129470e-01
5.517130e-01
4.966140e-01
4.476510e-01
4.048240e-01
5.763980e-01
5.207470e-01
4.707780e-01
4.264920e-01
3.878890e-01
5.340120e-01
4.861090e-01
4.427880e-01
4.040500e-01
3.698950e-01
4.857860e-01
4.477980e-01
4.126450e-01
3.803260e-01
3.508420e-01
4.317220e-01
4.058150e-01
3.803470e-01
3.553190e-01
3.307300e-01
4.048240e-01
3.675510e-01
3.344370e-01
3.054830e-01
2.806880e-01
3.878890e-01
3.521930e-01
3.205860e-01
2.930670e-01
2.696370e-01
3.698950e-01
3.359240e-01
3.059760e-01
2.800510e-01
2.581490e-01
3.508420e-01
3.187430e-01
2.906080e-01
2.664350e-01
2.462250e-01
3.307300e-01
3.006510e-01
2.744810e-01
2.522180e-01
2.338650e-01
2.806880e-01
2.619820e-01
2.444820e-01
2.281880e-01
2.131000e-01
2.696370e-01
2.529590e-01
2.370370e-01
2.218700e-01
2.074600e-01
2.581490e-01
2.435590e-01
2.292550e-01
2.152390e-01
2.015090e-01
2.462250e-01
2.337810e-01
2.211370e-01
2.082920e-01
1.952470e-01
2.338650e-01
2.236270e-01
2.126820e-01
2.010320e-01
1.886750e-01
2.131000e-01
1.994710e-01
1.870670e-01
1.758890e-01
1.659360e-01
2.074600e-01
1.942290e-01
1.822650e-01
1.715660e-01
1.621340e-01
2.015090e-01
1.887180e-01
1.772270e-01
1.670350e-01
1.581420e-01
1.952470e-01
1.829370e-01
1.719530e-01
1.622950e-01
1.539620e-01
1.886750e-01
1.768870e-01
1.664440e-01
1.573460e-01
1.495930e-01
1.659360e-01
1.568470e-01
1.484510e-01
1.407490e-01
1.337390e-01
1.621340e-01
1.535130e-01
1.455230e-01
1.381620e-01
1.314320e-01
1.581420e-01
1.500030e-01
1.424270e-01
1.354150e-01
1.289660e-01
1.539620e-01
1.463170e-01
1.391660e-01
1.325070e-01
1.263420e-01
1.495930e-01
1.424560e-01
1.357380e-01
1.294390e-01
1.235580e-01
1.337390e-01
1.272700e-01
1.213940e-01
1.161130e-01
1.114250e-01
1.314320e-01
1.252290e-01
1.195930e-01
1.145230e-01
1.100200e-01
1.289660e-01
1.230220e-01
1.176250e-01
1.127740e-01
1.084710e-01
1.263420e-01
1.206490e-01
1.154900e-01
1.108670e-01
1.067780e-01
1.235580e-01
1.181080e-01
1.131890e-01
1.088000e-01
1.049410e-01
8.939170e-02
9.285670e-02
9.627240e-02
9.963890e-02
1.029560e-01
8.740010e-02
9.066260e-02
9.389700e-02
9.710340e-02
1.002820e-01
8.530680e-02
8.836460e-02
9.141750e-02
9.446550e-02
9.750880e-02
8.311190e-02
8.596250e-02
8.883360e-02
9.172520e-02
9.463730e-02
8.081530e-02
8.345650e-02
8.614560e-02
8.888250e-02
9.166730e-02
1.029560e-01
1.065230e-01
1.102680e-01
1.141890e-01
1.182870e-01
1.002820e-01
1.036550e-01
1.072220e-01