<?xml version="1.0"?>
<VTKFile type="UnstructuredGrid" version="0.1" byte_order="LittleEndian" compressor="vtkZLibDataCompressor">
<UnstructuredGrid>
<Piece NumberOfPoints="10000" NumberOfCells="6400">
<Points>
<DataArray type="Float32" NumberOfComponents="3" format="ascii">
-3.360000e+00 0.000000e+00 0.000000e+00
-3.276000e+00 0.000000e+00 0.000000e+00
-3.192000e+00 0.000000e+00 0.000000e+00
-3.108000e+00 0.000000e+00 0.000000e+00
-3.024000e+00 0.000000e+00 0.000000e+00
-3.360000e+00 6.412500e-02 0.000000e+00
-3.276000e+00 6.412500e-02 0.000000e+00
-3.192000e+00 6.412500e-02 0.000000e+00
-3.108000e+00 6.412500e-02 0.000000e+00
-3.024000e+00 6.412500e-02 0.000000e+00
-3.360000e+00 1.282500e-01 0.000000e+00
-3.276000e+00 1.282500e-01 0.000000e+00
-3.192000e+00 1.282500e-01 0.000000e+00
-3.108000e+00 1.282500e-01 0.000000e+00
-3.024000e+00 1.282500e-01 0.000000e+00
-3.360000e+00 1.923750e-01 0.000000e+00
-3.276000e+00 1.923750e-01 0.000000e+00
-3.192000e+00 1.923750e-01 0.000000e+00
-3.108000e+00 1.923750e-01 0.000000e+00
-3.024000e+00 1.923750e-01 0.000000e+00
-3.360000e+00 2.565000e-01 0.000000e+00
-3.276000e+00 2.565000e-01 0.000000e+00
-3.192000e+00 2.565000e-01 0.000000e+00
-3.108000e+00 2.565000e-01 0.000000e+00
-3.024000e+00 2.565000e-01 0.000000e+00
-3.024000e+00 0.000000e+00 0.000000e+00
-2.940000e+00 0.000000e+00 0.000000e+00
-2.856000e+00 0.000000e+00 0.000000e+00
-2.772000e+00 0.000000e+00 0.000000e+00
-2.688000e+00 0.000000e+00 0.000000e+00
-3.024000e+00 6.412500e-02 0.000000e+00
-2.940000e+00 6.412500e-02 0.000000e+00
-2.856000e+00 6.412500e-02 0.000000e+00
-2.772000e+00 6.412500e-02 0.000000e+00
-2.688000e+00 6.412500e-02 0.000000e+00
-3.024000e+00 1.282500e-01 0.000000e+00
-2.940000e+00 1.282500e-01 0.000000e+00
-2.856000e+00 1.282500e-01 0.000000e+00
-2.772000e+00 1.282500e-01 0.000000e+00
-2.688000e+00 1.282500e-01 0.000000e+00
-3.024000e+00 1.923750e-01 0.000000e+00
-2.940000e+00 1.923750e-01 0.000000e+00
-2.856000e+00 1.923750e-01 0.000000e+00
-2.772000e+00 1.923750e-01 0.000000e+00
-2.688000e+00 1.923750e-01 0.000000e+00
-3.024000e+00 2.565000e-01 0.000000e+00
-2.940000e+00 2.565000e-01 0.000000e+00
-2.856000e+00 2.565000e-01 0.000000e+00
-2.772000e+00 2.565000e-01 0.000000e+00
-2.688000e+00 2.565000e-01 0.000000e+00
-2.688000e+00 0.000000e+00 0.000000e+00
-2.604000e+00 0.000000e+00 0.000000e+00
-2.520000e+00 0.000000e+00 0.000000e+00
-2.436000e+00 0.000000e+00 0.000000e+00
-2.352000e+00 0.000000e+00 0.000000e+00
-2.688000e+00 6.412500e-02 0.000000e+00
-2.604000e+00 6.412500e-02 0.000000e+00
-2.520000e+00 6.412500e-02 0.000000e+00
-2.436000e+00 6.412500e-02 0.000000e+00
-2.352000e+00 6.412500e-02 0.000000e+00
-2.688000e+00 1.282500e-01 0.000000e+00
-2.604000e+00 1.282500e-01 0.000000e+00
-2.520000e+00 1.282500e-01 0.000000e+00
-2.436000e+00 1.282500e-01 0.000000e+00
-2.352000e+00 1.282500e-01 0.000000e+00
-2.688000e+00 1.923750e-01 0.000000e+00
-2.604000e+00 1.923750e-01 0.000000e+00
-2.520000e+00 1.923750e-01 0.000000e+00
-2.436000e+00 1.923750e-01 0.000000e+00
-2.352000e+00 1.923750e-01 0.000000e+00
-2.688000e+00 2.565000e-01 0.000000e+00
-2.604000e+00 2.565000e-01 0.000000e+00
-2.520000e+00 2.565000e-01 0.000000e+00
-2.436000e+00 2.565000e-01 0.000000e+00
-2.352000e+00 2.565000e-01 0.000000e+00
-2.352000e+00 0.000000e+00 0.000000e+00
-2.268000e+00 0.000000e+00 0.000000e+00
-2.184000e+00 0.000000e+00 0.000000e+00
-2.100000e+00 0.000000e+00 0.000000e+00
-2.016000e+00 0.000000e+00 0.000000e+00
-2.352000e+00 6.412500e-02 0.000000e+00
-2.268000e+00 6.412500e-02 0.000000e+00
-2.184000e+00 6.412500e-02 0.000000e+00
-2.100000e+00 6.412500e-02 0.000000e+00
-2.016000e+00 6.412500e-02 0.000000e+00
-2.352000e+00 1.282500e-01 0.000000e+00
-2.268000e+00 1.282500e-01 0.000000e+00
-2.184000e+00 1.282500e-01 0.000000e+00
-2.100000e+00 1.282500e-01 0.000000e+00
-2.016000e+00 1.282500e-01 0.000000e+00
-2.352000e+00 1.923750e-01 0.000000e+00
-2.268000e+00 1.923750e-01 0.000000e+00
-2.184000e+00 1.923750e-01 0.000000e+00
-2.100000e+00 1.923750e-01 0.000000e+00
-2.016000e+00 1.923750e-01 0.000000e+00
-2.352000e+00 2.565000e-01 0.000000e+00
-2.268000e+00 2.565000e-01 0.000000e+00
-2.184000e+00 2.565000e-01 0.000000e+00
-2.100000e+00 2.565000e-01 0.000000e+00
-2.016000e+00 2.565000e-01 0.000000e+00
-2.016000e+00 0.000000e+00 0.000000e+00
-1.932000e+00 0.000000e+00 0.000000e+00
-1.848000e+00 0.000000e+00 0.000000e+00
-1.764000e+00 0.000000e+00 0.000000e+00
-1.680000e+00 0.000000e+00 0.000000e+00
-2.016000e+00 6.412500e-02 0.000000e+00
-1.932000e+00 6.412500e-02 0.000000e+00
-1.848000e+00 6.412500e-02 0.000000e+00
-1.764000e+00 6.412500e-02 0.000000e+00
-1.680000e+00 6.412500e-02 0.000000e+00
-2.016000e+00 1.282500e-01 0.000000e+00
-1.932000e+00 1.282500e-01 0.000000e+00
-1.848000e+00 1.282500e-01 0.000000e+00
-1.764000e+00 1.282500e-01 0.000000e+00
-1.680000e+00 1.282500e-01 0.000000e+00
-2.016000e+00 1.923750e-01 0.000000e+00
-1.932000e+00 1.923750e-01 0.000000e+00
-1.848000e+00 1.923750e-01 0.000000e+00
-1.764000e+00 1.923750e-01 0.000000e+00
-1.680000e+00 1.923750e-01 0.000000e+00
-2.016000e+00 2.565000e-01 0.000000e+00
-1.932000e+00 2.565000e-01 0.000000e+00
-1.848000e+00 2.565000e-01 0.000000e+00
-1.764000e+00 2.565000e-01 0.000000e+00
-1.680000e+00 2.565000e-01 0.000000e+00
-1.680000e+00 0.000000e+00 0.000000e+00
-1.596000e+00 0.000000e+00 0.000000e+00
-1.512000e+00 0.000000e+00 0.000000e+00
-1.428000e+00 0.000000e+00 0.000000e+00
-1.344000e+00 0.000000e+00 0.000000e+00
-1.680000e+00 6.412500e-02 0.000000e+00
-1.596000e+00 6.412500e-02 0.000000e+00
-1.512000e+00 6.412500e-02 0.000000e+00
-1.428000e+00 6.412500e-02 0.000000e+00
-1.344000e+00 6.412500e-02 0.000000e+00
-1.680000e+00 1.282500e-01 0.000000e+00
-1.596000e+00 1.282500e-01 0.000000e+00
-1.512000e+00 1.282500e-01 0.000000e+00
-1.428000e+00 1.282500e-01 0.000000e+00
-1.344000e+00 1.282500e-01 0.000000e+00
-1.680000e+00 1.923750e-01 0.000000e+00
-1.596000e+00 1.923750e-01 0.000000e+00
-1.512000e+00 1.923750e-01 0.000000e+00
-1.428000e+00 1.923750e-01 0.000000e+00
-1.344000e+00 1.923750e-01 0.000000e+00
-1.680000e+00 2.565000e-01 0.000000e+00
-1.596000e+00 2.565000e-01 0.000000e+00
-1.512000e+00 2.565000e-01 0.000000e+00
-1.428000e+00 2.565000e-01 0.000000e+00
-1.344000e+00 2.565000e-01 0.000000e+00
-1.344000e+00 0.000000e+00 0.000000e+00
-1.260000e+00 0.000000e+00 0.000000e+00
-1.176000e+00 0.000000e+00 0.000000e+00
-1.092000e+00 0.000000e+00 0.000000e+00
-1.008000e+00 0.000000e+00 0.000000e+00
-1.344000e+00 6.412500e-02 0.000000e+00
-1.260000e+00 6.412500e-02 0.000000e+00
-1.176000e+00 6.412500e-02 0.000000e+00
-1.092000e+00 6.412500e-02 0.000000e+00
-1.008000e+00 6.412500e-02 0.000000e+00
-1.344000e+00 1.282500e-01 0.000000e+00
-1.260000e+00 1.282500e-01 0.000000e+00
-1.176000e+00 1.282500e-01 0.000000e+00
-1.092000e+00 1.282500e-01 0.000000e+00
-1.008000e+00 1.282500e-01 0.000000e+00
-1.344000e+00 1.923750e-01 0.000000e+00
-1.260000e+00 1.923750e-01 0.000000e+00
-1.176000e+00 1.923750e-01 0.000000e+00
-1.092000e+00 1.923750e-01 0.000000e+00
-1.008000e+00 1.923750e-01 0.000000e+00
-1.344000e+00 2.565000e-01 0.000000e+00
-1.260000e+00 2.565000e-01 0.000000e+00
-1.176000e+00 2.565000e-01 0.000000e+00
-1.092000e+00 2.565000e-01 0.000000e+00
-1.008000e+00 2.565000e-01 0.000000e+00
-1.008000e+00 0.000000e+00 0.000000e+00
-9.240000e-01 0.000000e+00 0.000000e+00
-8.400000e-01 0.000000e+00 0.000000e+00
-7.560000e-01 0.000000e+00 0.000000e+00
-6.720000e-01 0.000000e+00 0.000000e+00
-1.008000e+00 6.412500e-02 0.000000e+00
-9.240000e-01 6.412500e-02 0.000000e+00
-8.400000e-01 6.412500e-02 0.000000e+00
-7.560000e-01 6.412500e-02 0.000000e+00
-6.720000e-01 6.412500e-02 0.000000e+00
-1.008000e+00 1.282500e-01 0.000000e+00
-9.240000e-01 1.282500e-01 0.000000e+00
-8.400000e-01 1.282500e-01 0.000000e+00
-7.560000e-01 1.282500e-01 0.000000e+00
-6.720000e-01 1.282500e-01 0.000000e+00
-1.008000e+00 1.923750e-01 0.000000e+00
-9.240000e-01 1.923750e-01 0.000000e+00
-8.400000e-01 1.923750e-01 0.000000e+00
-7.560000e-01 1.923750e-01 0.000000e+00
-6.720000e-01 1.923750e-01 0.000000e+00
-1.008000e+00 2.565000e-01 0.000000e+00
-9.240000e-01 2.565000e-01 0.000000e+00
-8.400000e-01 2.565000e-01 0.000000e+00
-7.560000e-01 2.565000e-01 0.000000e+00
-6.720000e-01 2.565000e-01 0.000000e+00
-6.720000e-01 0.000000e+00 0.000000e+00
-5.880000e-01 0.000000e+00 0.000000e+00
-5.040000e-01 0.000000e+00 0.000000e+00
-4.200000e-01 0.000000e+00 0.000000e+00
-3.360000e-01 0.000000e+00 0.000000e+00
-6.720000e-01 6.412500e-02 0.000000e+00
-5.880000e-01 6.412500e-02 0.000000e+00
-5.040000e-01 6.412500e-02 0.000000e+00
-4.200000e-01 6.412500e-02 0.000000e+00
-3.360000e-01 6.412500e-02 0.000000e+00
-6.720000e-01 1.282500e-01 0.000000e+00
-5.880000e-01 1.282500e-01 0.000000e+00
-5.040000e-01 1.282500e-01 0.000000e+00
-4.200000e-01 1.282500e-01 0.000000e+00
-3.360000e-01 1.282500e-01 0.000000e+00
-6.720000e-01 1.923750e-01 0.000000e+00
-5.880000e-01 1.923750e-01 0.000000e+00
-5.040000e-01 1.923750e-01 0.000000e+00
-4.200000e-01 1.923750e-01 0.000000e+00
-3.360000e-01 1.923750e-01 0.000000e+00
-6.720000e-01 2.565000e-01 0.000000e+00
-5.880000e-01 2.565000e-01 0.000000e+00
-5.040000e-01 2.565000e-01 0.000000e+00
-4.200000e-01 2.565000e-01 0.000000e+00
-3.360000e-01 2.565000e-01 0.000000e+00
-3.360000e-01 0.000000e+00 0.000000e+00
-2.520000e-01 0.000000e+00 0.000000e+00
-1.680000e-01 0.000000e+00 0.000000e+00
-8.400000e-02 0.000000e+00 0.000000e+00
-4.440890e-16 0.000000e+00 0.000000e+00
-3.360000e-01 6.412500e-02 0.000000e+00
-2.520000e-01 6.412500e-02 0.000000e+00
-1.680000e-01 6.412500e-02 0.000000e+00
-8.400000e-02 6.412500e-02 0.000000e+00
-4.440890e-16 6.412500e-02 0.000000e+00
-3.360000e-01 1.282500e-01 0.000000e+00
-2.520000e-01 1.282500e-01 0.000000e+00
-1.680000e-01 1.282500e-01 0.000000e+00
-8.400000e-02 1.282500e-01 0.000000e+00
-4.440890e-16 1.282500e-01 0.000000e+00
-3.360000e-01 1.923750e-01 0.000000e+00
-2.520000e-01 1.923750e-01 0.000000e+00
-1.680000e-01 1.923750e-01 0.000000e+00
[...]
<PointData>
<DataArray type="Float32" Name="V1" format="ascii">
0.000000e+00
0.000000e+00
0.000000e+00
0.000000e+00
0.000000e+00
6.347820e-02
5.967640e-02
5.590220e-02
5.215550e-02
4.843630e-02
1.013490e-01
9.778130e-02
9.375840e-02
8.927990e-02
8.434570e-02
1.136110e-01
1.143150e-01
1.135690e-01
1.113730e-01
1.077280e-01
1.002660e-01
1.092770e-01
1.153330e-01
1.184350e-01
1.185840e-01
0.000000e+00
0.000000e+00
0.000000e+00
0.000000e+00
0.000000e+00
4.843630e-02
4.476370e-02
4.262530e-02
4.202140e-02
4.295170e-02
8.434570e-02
7.940250e-02
7.661560e-02
7.598500e-02
7.751060e-02
1.077280e-01
1.039170e-01
1.019710e-01
1.018910e-01
1.036770e-01
1.185840e-01
1.183060e-01
1.186910e-01
1.197390e-01
1.214500e-01
0.000000e+00
0.000000e+00
0.000000e+00
0.000000e+00
0.000000e+00
4.295170e-02
4.394460e-02
4.514530e-02
4.655380e-02
4.817020e-02
7.751060e-02
7.927990e-02
8.146780e-02
8.407450e-02
8.709980e-02
1.036770e-01
1.060060e-01
1.089680e-01
1.125620e-01
1.167890e-01
1.214500e-01
1.241230e-01
1.276450e-01
1.320160e-01
1.372370e-01
0.000000e+00
0.000000e+00
0.000000e+00
0.000000e+00
0.000000e+00
4.817020e-02
4.991450e-02
5.214430e-02
5.485950e-02
5.806010e-02
8.709980e-02
9.036090e-02
9.441290e-02
9.925580e-02
1.048890e-01
1.167890e-01
1.213390e-01
1.268060e-01
1.331890e-01
1.404880e-01
1.372370e-01
1.428490e-01
1.493230e-01
1.566590e-01
1.648560e-01
0.000000e+00
0.000000e+00
0.000000e+00
0.000000e+00
0.000000e+00
5.806010e-02
6.148610e-02
6.556990e-02
7.031160e-02
7.571110e-02
1.048890e-01
1.109120e-01
1.180420e-01
1.262800e-01
1.356270e-01
1.404880e-01
1.482770e-01
1.574170e-01
1.679070e-01
1.797460e-01
1.648560e-01
1.735830e-01
1.836940e-01
1.951900e-01
2.080710e-01
0.000000e+00
0.000000e+00
0.000000e+00
0.000000e+00
0.000000e+00
7.571110e-02
8.114610e-02
8.790900e-02
9.600000e-02
1.054190e-01
1.356270e-01
1.450250e-01
1.565920e-01
1.703270e-01
1.862300e-01
1.797460e-01
1.916380e-01
2.060500e-01
2.229820e-01
2.424330e-01
2.080710e-01
2.209850e-01
2.362820e-01
2.539630e-01
2.740280e-01
0.000000e+00
0.000000e+00
0.000000e+00
0.000000e+00
0.000000e+00
1.054190e-01
1.143130e-01
1.255920e-01
1.392550e-01
1.553020e-01
1.862300e-01
2.012780e-01
2.201320e-01
2.427920e-01
2.692570e-01
2.424330e-01
2.608950e-01
2.836210e-01
3.106110e-01
3.418640e-01
2.740280e-01
2.931640e-01
3.160590e-01
3.427120e-01
3.731250e-01
0.000000e+00
0.000000e+00
0.000000e+00
0.000000e+00
0.000000e+00
1.553020e-01
1.706300e-01
1.889420e-01
2.102360e-01
2.345140e-01
2.692570e-01
2.947130e-01
3.248220e-01
3.595830e-01
3.989980e-01
3.418640e-01
3.722480e-01
4.076400e-01
4.480420e-01
4.934540e-01
3.731250e-01
4.032350e-01
4.373970e-01
4.756120e-01
5.178800e-01
0.000000e+00
0.000000e+00
0.000000e+00
0.000000e+00
0.000000e+00
2.345140e-01
2.617480e-01
2.894280e-01
3.175530e-01
3.461220e-01
3.989980e-01
4.436070e-01
4.889680e-01
5.350840e-01
5.819530e-01
4.934540e-01
5.455750e-01
5.986220e-01
6.525940e-01
7.074910e-01
5.178800e-01
5.676540e-01
6.183880e-01
6.700830e-01
7.227370e-01
0.000000e+00
0.000000e+00
0.000000e+00
0.000000e+00
0.000000e+00
3.461220e-01
3.853010e-01
4.183220e-01
4.451840e-01
4.658880e-01
5.819530e-01
6.462760e-01
7.017620e-01
7.484110e-01
7.862230e-01
7.074910e-01
7.829220e-01
8.503190e-01
9.096790e-01
9.610050e-01
7.227370e-01
7.952420e-01
8.639930e-01
9.289900e-01
9.902340e-01
0.000000e+00
0.000000e+00
0.000000e+00
0.000000e+00
0.000000e+00
4.658880e-01
4.886550e-01
5.010910e-01
5.031970e-01
4.949740e-01
7.862230e-01
8.282720e-01
8.549890e-01
8.663730e-01
8.624260e-01
9.610050e-01
1.018850e+00
1.061690e+00
1.089530e+00
1.102360e+00
9.902340e-01
1.060400e+00
1.121210e+00
1.172660e+00
1.214760e+00
0.000000e+00
0.000000e+00
0.000000e+00
0.000000e+00
0.000000e+00
4.949740e-01
4.604960e-01
4.200660e-01
3.736850e-01
3.213520e-01
8.624260e-01
8.172040e-01
7.608600e-01
6.933950e-01
6.148070e-01
1.102360e+00
1.070120e+00
1.022380e+00
9.591290e-01
8.803660e-01
1.214760e+00
1.219260e+00
1.204630e+00
1.170890e+00
1.118030e+00
0.000000e+00
0.000000e+00
0.000000e+00
0.000000e+00
0.000000e+00
3.213520e-01
2.633340e-01
2.112000e-01
1.649490e-01
1.245810e-01
6.148070e-01
5.207470e-01
4.335050e-01
3.530800e-01
2.794740e-01
8.803660e-01
7.722370e-01
6.669130e-01
5.643940e-01
4.646790e-01
1.118030e+00
1.017810e+00
9.114260e-01
7.988900e-01
6.801970e-01
0.000000e+00
0.000000e+00
0.000000e+00
0.000000e+00
0.000000e+00
1.245810e-01
9.227840e-02
7.051250e-02
5.928310e-02
5.859030e-02
2.794740e-01
2.194920e-01
1.770110e-01
1.520330e-01
1.445560e-01
4.646790e-01
3.816400e-01
3.194960e-01
2.782480e-01
2.578970e-01
6.801970e-01
5.787230e-01
4.979670e-01
4.379310e-01
3.986130e-01
0.000000e+00
0.000000e+00
0.000000e+00
0.000000e+00
0.000000e+00
5.859030e-02
5.684410e-02
5.772190e-02
6.122350e-02
6.734900e-02
1.445560e-01
1.369320e-01
1.338350e-01
1.352650e-01
1.412230e-01
2.578970e-01
2.402620e-01
2.283380e-01
2.221250e-01
2.216210e-01
3.986130e-01
3.668370e-01
3.412330e-01
3.218020e-01
3.085450e-01
0.000000e+00
0.000000e+00
0.000000e+00
0.000000e+00
0.000000e+00
6.734900e-02
7.198920e-02
7.423190e-02
7.407730e-02
7.152530e-02
1.412230e-01
1.456730e-01
1.465090e-01
1.437310e-01
1.373370e-01
2.216210e-01
2.210520e-01
2.168320e-01
2.089600e-01
1.974360e-01
3.085450e-01
2.981260e-01
2.852000e-01
2.697650e-01
2.518210e-01
0.000000e+00
0.000000e+00
0.000000e+00
0.000000e+00
0.000000e+00
7.152530e-02
7.106940e-02
6.965420e-02
6.727970e-02
6.394600e-02
1.373370e-01
1.344940e-01
1.304170e-01
1.251040e-01
1.185570e-01
1.974360e-01
1.902750e-01
1.822880e-01
1.734740e-01
1.638340e-01
2.518210e-01
2.384120e-01
2.252670e-01
2.123890e-01
1.997760e-01
0.000000e+00
0.000000e+00
0.000000e+00
0.000000e+00
0.000000e+00
6.394600e-02
6.169060e-02
5.926310e-02
5.666350e-02
5.389170e-02
1.185570e-01
1.137190e-01
1.087410e-01
1.036230e-01
9.836570e-02
1.638340e-01
1.560850e-01
1.484330e-01
1.408790e-01
1.334220e-01
1.997760e-01
1.887890e-01
1.783400e-01
1.684310e-01
1.590600e-01
0.000000e+00
0.000000e+00
0.000000e+00
0.000000e+00
0.000000e+00
5.389170e-02
5.164570e-02
4.937120e-02
4.706820e-02
4.473670e-02
9.836570e-02
9.399280e-02
8.966030e-02
8.536830e-02
8.111660e-02
1.334220e-01
1.270410e-01
1.208680e-01
1.149000e-01
1.091400e-01
1.590600e-01
1.507910e-01
1.429930e-01
1.356640e-01
1.288060e-01
0.000000e+00
0.000000e+00
0.000000e+00
0.000000e+00
0.000000e+00
4.473670e-02
4.311450e-02
4.087270e-02
3.801140e-02
3.453060e-02
8.111660e-02
7.780950e-02
7.380970e-02
6.911710e-02
6.373180e-02
1.091400e-01
1.040850e-01
9.881090e-02
9.331710e-02
8.760380e-02
1.288060e-01
1.219410e-01
1.158760e-01
1.106110e-01
1.061460e-01
1.002660e-01
1.092770e-01
1.153330e-01
1.184350e-01
1.185840e-01
9.945850e-02
1.074680e-01
1.136630e-01
1.180440e-01
1.206110e-01
9.848610e-02
1.053870e-01
1.113420e-01
1.163510e-01
1.204130e-01
9.734850e-02
1.030350e-01
1.083700e-01
1.133550e-01
1.179880e-01
9.604590e-02
1.004100e-01
1.047470e-01
1.090560e-01
1.133380e-01
1.185840e-01
1.183060e-01
1.186910e-01
1.197390e-01
1.214500e-01
1.206110e-01
1.222220e-01
1.240530e-01
1.261030e-01
1.283730e-01
1.204130e-01
1.233660e-01
1.262410e-01
1.290390e-01
1.317590e-01
1.179880e-01
1.217380e-01
1.252570e-01
1.285480e-01
1.316090e-01
1.133380e-01
1.173370e-01
1.211010e-01
1.246280e-01
1.279210e-01
1.214500e-01
1.241230e-01
1.276450e-01
1.320160e-01
1.372370e-01
1.283730e-01
1.313150e-01
1.350850e-01
1.396820e-01
1.451080e-01
1.317590e-01
1.349390e-01
1.388890e-01
1.436110e-01
1.491040e-01
1.316090e-01
1.349940e-01
1.390590e-01
1.438030e-01
1.492260e-01
1.279210e-01
1.314820e-01
1.355940e-01
1.402580e-01
1.454730e-01
1.372370e-01
1.428490e-01
1.493230e-01
1.566590e-01
1.648560e-01
1.451080e-01
1.509810e-01
1.576930e-01
1.652430e-01
1.736310e-01
1.491040e-01
1.550720e-01
1.618450e-01
1.694250e-01
1.778120e-01
1.492260e-01
1.551200e-01
1.617790e-01
1.692050e-01
1.773970e-01
1.454730e-01
1.511260e-01
1.574960e-01
1.645840e-01
1.723880e-01
1.648560e-01
1.735830e-01
1.836940e-01
1.951900e-01
2.080710e-01
1.736310e-01
1.824730e-01
1.926620e-01
2.041970e-01
2.170790e-01
1.778120e-01
1.865990e-01
1.966740e-01
2.080390e-01
2.206910e-01
1.773970e-01
1.859590e-01
1.957320e-01
2.067140e-01
2.189070e-01
1.723880e-01
1.805550e-01
1.898330e-01
2.002240e-01
2.117260e-01
2.080710e-01
2.209850e-01
2.362820e-01
2.539630e-01
2.740280e-01
2.170790e-01
2.298900e-01
2.450440e-01
2.625400e-01
2.823780e-01
2.206910e-01
2.332270e-01
2.480270e-01
2.650900e-01
2.844170e-01
2.189070e-01
2.309960e-01
2.452320e-01
2.616140e-01
2.801440e-01
2.117260e-01
2.231960e-01
2.366580e-01
2.521130e-01
2.695600e-01
2.740280e-01
2.931640e-01
3.160590e-01
3.427120e-01
3.731250e-01
2.823780e-01
3.008110e-01
3.231960e-01
3.495340e-01
3.798260e-01
2.844170e-01
3.019910e-01
3.236480e-01
3.493900e-01
3.792150e-01
2.801440e-01
2.967040e-01
3.174160e-01
3.422780e-01
3.712920e-01
2.695600e-01
2.849510e-01
3.044980e-01
3.282000e-01
3.560570e-01
3.731250e-01
4.032350e-01
4.373970e-01
4.756120e-01
5.178800e-01
3.798260e-01
4.085410e-01
4.420250e-01
4.802790e-01
5.233030e-01
3.792150e-01
4.062880e-01
4.387530e-01
4.766100e-01
5.198590e-01
3.712920e-01
3.964750e-01
4.275790e-01
4.646040e-01
5.075500e-01
3.560570e-01
3.791040e-01
4.085060e-01
4.442630e-01
4.863750e-01
5.178800e-01
5.676540e-01
6.183880e-01
6.700830e-01
7.227370e-01
5.233030e-01
5.727220e-01
6.242140e-01
6.777810e-01
7.334210e-01
5.198590e-01
5.684900e-01
6.200650e-01
6.745840e-01
7.320480e-01
5.075500e-01
5.549590e-01
6.059410e-01
6.604940e-01
7.186190e-01
4.863750e-01
5.321300e-01
5.818420e-01
6.355100e-01
6.931340e-01
7.227370e-01
7.952420e-01
8.639930e-01
9.289900e-01
9.902340e-01
7.334210e-01
8.113410e-01
8.853300e-01
9.553880e-01
1.021520e+00
7.320480e-01
8.150830e-01
8.944180e-01
9.700530e-01
1.041990e+00
7.186190e-01
8.064680e-01
8.912560e-01
9.729840e-01
1.051650e+00
6.931340e-01
7.854960e-01
8.758460e-01
9.641830e-01
1.050510e+00
9.902340e-01
1.060400e+00
1.121210e+00
1.172660e+00
1.214760e+00
1.021520e+00
1.105590e+00
1.178540e+00
1.240360e+00
1.291060e+00
1.041990e+00
1.139680e+00
1.224550e+00
1.296590e+00
1.355810e+00
1.051650e+00
1.162680e+00
1.259250e+00
1.341360e+00
1.409030e+00
1.050510e+00
1.174570e+00
1.282630e+00
1.374670e+00
1.450700e+00
1.214760e+00
1.219260e+00
1.204630e+00
1.170890e+00
1.118030e+00
1.291060e+00
1.297520e+00
1.289450e+00
1.266850e+00
1.229710e+00
1.355810e+00
1.364130e+00
1.360170e+00
1.343920e+00
1.315390e+00
1.409030e+00
1.419090e+00
1.416790e+00
1.402110e+00
1.375070e+00
1.450700e+00
1.462400e+00
1.459300e+00
1.441420e+00
1.408750e+00
1.118030e+00
1.017810e+00
9.114260e-01
7.988900e-01
6.801970e-01
1.229710e+00
1.150160e+00
1.060590e+00
9.609960e-01
8.513880e-01
1.315390e+00
1.246150e+00
1.166670e+00
1.076970e+00
9.770420e-01
1.375070e+00
1.305780e+00
1.229690e+00
1.146820e+00
1.057160e+00
1.408750e+00
1.329040e+00
1.249640e+00
1.170540e+00
1.091740e+00
6.801970e-01
5.787230e-01
4.979670e-01
4.379310e-01
3.986130e-01
8.513880e-01
7.433640e-01
6.520640e-01
5.774890e-01
5.196380e-01
9.770420e-01
8.685790e-01
7.720750e-01
6.875300e-01
6.149450e-01
1.057160e+00
9.543690e-01
8.580020e-01
7.680560e-01
6.845320e-01
1.091740e+00
1.000730e+00
9.098440e-01
8.190660e-01
7.284010e-01
3.986130e-01
3.668370e-01
3.412330e-01
3.218020e-01
3.085450e-01
5.196380e-01
4.735310e-01
4.336710e-01
4.000600e-01
3.726960e-01
6.149450e-01
5.571010e-01
5.053380e-01
4.596560e-01
4.200540e-01
6.845320e-01
6.175480e-01
5.562340e-01
5.005910e-01
4.506190e-01
7.284010e-01
6.548700e-01
5.863580e-01
5.228650e-01
4.643910e-01
3.085450e-01
2.981260e-01
2.852000e-01
2.697650e-01
2.518210e-01
3.726960e-01
3.517870e-01
3.300620e-01
3.075180e-01
2.841580e-01
4.200540e-01
3.901680e-01
3.610870e-01
3.328110e-01
3.053410e-01
4.506190e-01
4.132670e-01
3.782750e-01
3.456420e-01
3.153700e-01
4.643910e-01
4.210850e-01
3.816260e-01
3.460120e-01
3.142450e-01
2.518210e-01
2.384120e-01
2.252670e-01
2.123890e-01
1.997760e-01
2.841580e-01
2.665800e-01
2.498890e-01
2.340860e-01
2.191700e-01
3.053410e-01
2.847250e-01
2.655030e-01
2.476770e-01
2.312450e-01
3.153700e-01
2.928470e-01
2.721110e-01
2.531630e-01
2.360020e-01
3.142450e-01
2.909450e-01
2.697110e-01
2.505430e-01
2.334400e-01
1.997760e-01
1.887890e-01
1.783400e-01
1.684310e-01
1.590600e-01
2.191700e-01
2.060820e-01
1.938490e-01
1.824700e-01
1.719450e-01
2.312450e-01
2.166530e-01
2.031830e-01
1.908340e-01
1.796080e-01
2.360020e-01
2.205010e-01
2.063410e-01
1.935240e-01
1.820490e-01
2.334400e-01
2.176250e-01
2.033250e-01
1.905400e-01
1.792690e-01
1.590600e-01
1.507910e-01
1.429930e-01
1.356640e-01
1.288060e-01
1.719450e-01
1.627450e-01
1.541030e-01
1.460200e-01
1.384950e-01
1.796080e-01
1.698500e-01
1.607170e-01
1.522080e-01
1.443240e-01
1.820490e-01
1.721070e-01
1.628340e-01
1.542290e-01
1.462930e-01
1.792690e-01
1.695170e-01
1.604550e-01
1.520830e-01
1.444020e-01
1.288060e-01
1.219410e-01
1.158760e-01
1.106110e-01
1.061460e-01
1.384950e-01
1.312430e-01
1.248380e-01
1.192800e-01
1.145680e-01
1.443240e-01
1.369040e-01
1.303400e-01
1.246310e-01
1.197780e-01
1.462930e-01
1.389240e-01
1.323810e-01
1.266660e-01
1.217760e-01
1.444020e-01
1.373030e-01
1.309630e-01
1.253830e-01
1.205620e-01
9.604590e-02
1.004100e-01
1.047470e-01
1.090560e-01
1.133380e-01
9.458900e-02
9.851480e-02
1.024540e-01
1.064070e-01
1.103740e-01
9.299440e-02
9.661620e-02
1.002480e-01
1.038900e-01
1.075410e-01
9.126190e-02
9.471440e-02
9.812820e-02
1.015030e-01
1.048400e-01
8.939170e-02
9.280920e-02
9.609460e-02
9.924810e-02
1.022700e-01
1.133380e-01
1.173370e-01
1.211010e-01
1.246280e-01
1.279210e-01
1.103740e-01
1.142320e-01
1.179620e-01
1.215630e-01
1.250350e-01
1.075410e-01
1.112190e-01
1.148630e-01
1.184740e-01
1.220510e-01
1.048400e-01
1.082970e-01
1.118040e-01
1.153610e-01
1.189680e-01
1.022700e-01
1.054660e-01
1.087850e-01
1.122250e-01
1.157860e-01
1.279210e-01
1.314820e-01
1.355940e-01
1.402580e-01
1.454730e-01
1.250350e-01
1.287170e-01
1.328760e-01
1.375100e-01
1.426220e-01
1.220510e-01
1.258010e-01
1.299600e-01
1.345290e-01
1.395070e-01
1.189680e-01
1.227320e-01
1.268470e-01
1.313120e-01
1.361290e-01
1.157860e-01
1.195110e-01
1.235370e-01
1.278620e-01
1.324870e-01
1.454730e-01
1.511260e-01
1.574960e-01
1.645840e-01
1.723880e-01
1.426220e-01
1.481130e-01
1.542840e-01
1.611350e-01
1.686670e-01
1.395070e-01
1.448090e-01
1.507500e-01
1.573310e-01
1.645510e-01
1.361290e-01
1.412150e-01
1.468960e-01
1.531710e-01
1.600410e-01
1.324870e-01
1.373310e-01
1.427210e-01
1.486550e-01
1.551360e-01
1.723880e-01
1.805550e-01
1.898330e-01
2.002240e-01
2.117260e-01
1.686670e-01
1.765160e-01
1.854140e-01
1.953620e-01
2.063590e-01
1.645510e-01
1.720310e-01
1.804950e-01
1.899440e-01
2.003770e-01
1.600410e-01
1.671000e-01
1.750760e-01
1.839690e-01
1.937790e-01
1.551360e-01
1.617230e-01
1.691570e-01
1.774370e-01
1.865640e-01
2.117260e-01
2.231960e-01
2.366580e-01
2.521130e-01
2.695600e-01
2.063590e-01
2.172930e-01
2.301080e-01
2.448050e-01
2.613820e-01
2.003770e-01
2.106650e-01
2.227290e-01
2.365710e-01
2.521900e-01
1.937790e-01
2.033090e-01
2.145200e-01
2.274120e-01
2.419830e-01
1.865640e-01
1.952280e-01
2.054820e-01
2.173270e-01
2.307620e-01
2.695600e-01
2.849510e-01
3.044980e-01
3.282000e-01
3.560570e-01
2.613820e-01
2.756670e-01
2.941620e-01
3.168680e-01
3.437840e-01
2.521900e-01
2.652280e-01
2.824930e-01
3.039870e-01
3.297080e-01
2.419830e-01
2.536340e-01
2.694920e-01
2.895580e-01
3.138300e-01
2.307620e-01
2.408870e-01
2.551590e-01
2.735800e-01
2.961480e-01
3.560570e-01
3.791040e-01
4.085060e-01
4.442630e-01
4.863750e-01
3.437840e-01
3.641540e-01
3.917590e-01
4.265970e-01
4.686690e-01
3.297080e-01
3.468040e-01
3.722190e-01
4.059520e-01
4.480040e-01
3.138300e-01
3.270530e-01
3.498850e-01
3.823270e-01
4.243780e-01
2.961480e-01
3.049010e-01
3.247590e-01
3.557230e-01
3.977920e-01
4.863750e-01
5.321300e-01
5.818420e-01
6.355100e-01
6.931340e-01
4.686690e-01
5.129210e-01
5.606400e-01
6.118270e-01
6.664820e-01
4.480040e-01
4.879360e-01
5.319270e-01
5.799740e-01
6.320800e-01
4.243780e-01
4.571770e-01
4.957020e-01
5.399520e-01
5.899280e-01
3.977920e-01
4.206430e-01
4.519650e-01
4.917600e-01
5.400270e-01
6.931340e-01
7.854960e-01
8.758460e-01
9.641830e-01
1.050510e+00
6.664820e-01
7.700780e-01
8.661580e-01
9.547200e-01
1.035770e+00
6.320800e-01
7.419890e-01
8.369860e-01
9.170730e-01
9.822470e-01
5.899280e-01
7.012280e-01
7.883320e-01
8.512400e-01
8.899510e-01
5.400270e-01
6.477960e-01
7.201940e-01
7.572210e-01
7.588770e-01
1.050510e+00
1.174570e+00
1.282630e+00
1.374670e+00
1.450700e+00
1.035770e+00
1.154450e+00
1.259340e+00
1.350450e+00
1.427780e+00
9.822470e-01
1.095460e+00
1.196840e+00
1.286410e+00
1.364160e+00
8.899510e-01
9.976010e-01
1.095130e+00
1.182550e+00
1.259840e+00
7.588770e-01
8.608800e-01
9.542060e-01
1.038860e+00
1.114830e+00
1.450700e+00
1.462400e+00
1.459300e+00
1.441420e+00
1.408750e+00
1.427780e+00
1.445220e+00
1.452710e+00
1.450240e+00
1.437800e+00
1.364160e+00
1.379720e+00
1.392110e+00
1.401340e+00
1.407400e+00
1.259840e+00
1.265880e+00
1.277510e+00
1.294730e+00
1.317550e+00
1.114830e+00
1.103710e+00
1.108910e+00
1.130420e+00
1.168240e+00
1.408750e+00
1.329040e+00
1.249640e+00
1.170540e+00
1.091740e+00
1.437800e+00
1.349080e+00
1.259670e+00
1.169560e+00
1.078770e+00
1.407400e+00
1.320330e+00
1.230650e+00
1.138360e+00
1.043470e+00
1.317550e+00
1.242800e+00
1.162600e+00
1.076950e+00
9.858340e-01
1.168240e+00
1.116490e+00
1.055520e+00
9.853090e-01
9.058720e-01
1.091740e+00
1.000730e+00
9.098440e-01
8.190660e-01
7.284010e-01
1.078770e+00
9.933620e-01
9.064160e-01
8.179270e-01
7.278960e-01
1.043470e+00
9.635640e-01
8.808570e-01
7.953450e-01
7.070290e-01
9.858340e-01
9.113390e-01
8.331680e-01
7.513210e-01
6.657990e-01
9.058720e-01
8.366880e-01
7.633490e-01
6.858550e-01
6.042060e-01
7.284010e-01
6.548700e-01
5.863580e-01
5.228650e-01
4.643910e-01
7.278960e-01
6.547470e-01
5.854850e-01
5.201100e-01
4.586230e-01
7.070290e-01
6.380840e-01
5.715620e-01
5.074640e-01
4.457890e-01
6.657990e-01
6.048810e-01
5.445890e-01
4.849250e-01
4.258870e-01
6.042060e-01
5.551370e-01
5.045660e-01
4.524930e-01
3.989180e-01
4.643910e-01
4.210850e-01
3.816260e-01
3.460120e-01
3.142450e-01
4.586230e-01
4.138400e-01
3.735480e-01
3.377470e-01
3.064380e-01
4.457890e-01
4.014300e-01
3.617810e-01
3.268430e-01
2.966150e-01
4.258870e-01
3.838550e-01
3.463260e-01
3.133000e-01
2.847770e-01
3.989180e-01
3.611150e-01
3.271820e-01
2.971180e-01
2.709240e-01
3.142450e-01
2.909450e-01
2.697110e-01
2.505430e-01
2.334400e-01
3.064380e-01
2.839500e-01
2.634770e-01
2.450190e-01
2.285750e-01
2.966150e-01
2.753900e-01
2.560260e-01
2.385220e-01
2.228800e-01
2.847770e-01
2.652650e-01
2.473560e-01
2.310520e-01
2.163520e-01
2.709240e-01
2.535740e-01
2.374690e-01
2.226090e-01
2.089930e-01
2.334400e-01
2.176250e-01
2.033250e-01
1.905400e-01
1.792690e-01
2.285750e-01
2.129690e-01
1.989410e-01
1.864910e-01
1.756180e-01
2.228800e-01
2.076240e-01
1.939860e-01
1.819650e-01
1.715620e-01
2.163520e-01
2.015900e-01
1.884600e-01
1.769630e-01
1.670990e-01
2.089930e-01
1.948660e-01
1.823630e-01
1.714850e-01
1.622310e-01
1.792690e-01
1.695170e-01
1.604550e-01
1.520830e-01
1.444020e-01
1.756180e-01
1.663040e-01
1.576280e-01
1.495890e-01
1.421890e-01
1.715620e-01
1.627290e-01
1.544730e-01
1.467940e-01
1.396910e-01
1.670990e-01
1.587920e-01
1.509910e-01
1.436960e-01
1.369070e-01
1.622310e-01
1.544920e-01
1.471810e-01
1.402960e-01
1.338380e-01
1.444020e-01
1.373030e-01
1.309630e-01
1.253830e-01
1.205620e-01
1.421890e-01
1.353320e-01
1.292230e-01
1.238600e-01
1.192450e-01
1.396910e-01
1.330810e-01
1.272100e-01
1.220780e-01
1.176850e-01
1.369070e-01
1.305490e-01
1.249250e-01
1.200360e-01
1.158810e-01
1.338380e-01
1.277360e-01
1.223680e-01
1.177330e-01
1.138330e-01
8.939170e-02
9.280920e-02
9.609460e-02
9.924810e-02
1.022700e-01
8.740010e-02
9.060870e-02
9.370780e-02
9.669760e-02
9.957790e-02
8.530680e-02
8.830140e-02
9.121400e-02
9.404440e-02
9.679280e-02
8.311190e-02
8.588740e-02
8.861300e-02
9.128860e-02
9.391420e-02
8.081530e-02
8.336670e-02
8.590500e-02
8.843020e-02
9.094220e-02
1.022700e-01
1.054660e-01
1.087850e-01
1.122250e-01
1.157860e-01
9.957790e-02
1.025850e-01
1.057450e-01