<?xml version="1.0"?>
<VTKFile type="UnstructuredGrid" version="0.1" byte_order="LittleEndian" compressor="vtkZLibDataCompressor">
<UnstructuredGrid>
<Piece NumberOfPoints="10000" NumberOfCells="6400">
<Points>
<DataArray type="Float32" NumberOfComponents="3" format="ascii">
-3.360000e+00 0.000000e+00 0.000000e+00
-3.276000e+00 0.000000e+00 0.000000e+00
-3.192000e+00 0.000000e+00 0.000000e+00
-3.108000e+00 0.000000e+00 0.000000e+00
-3.024000e+00 0.000000e+00 0.000000e+00
-3.360000e+00 6.412500e-02 0.000000e+00
-3.276000e+00 6.412500e-02 0.000000e+00
-3.192000e+00 6.412500e-02 0.000000e+00
-3.108000e+00 6.412500e-02 0.000000e+00
-3.024000e+00 6.412500e-02 0.000000e+00
-3.360000e+00 1.282500e-01 0.000000e+00
-3.276000e+00 1.282500e-01 0.000000e+00
-3.192000e+00 1.282500e-01 0.000000e+00
-3.108000e+00 1.282500e-01 0.000000e+00
-3.024000e+00 1.282500e-01 0.000000e+00
-3.360000e+00 1.923750e-01 0.000000e+00
-3.276000e+00 1.923750e-01 0.000000e+00
-3.192000e+00 1.923750e-01 0.000000e+00
-3.108000e+00 1.923750e-01 0.000000e+00
-3.024000e+00 1.923750e-01 0.000000e+00
-3.360000e+00 2.565000e-01 0.000000e+00
-3.276000e+00 2.565000e-01 0.000000e+00
-3.192000e+00 2.565000e-01 0.000000e+00
-3.108000e+00 2.565000e-01 0.000000e+00
-3.024000e+00 2.565000e-01 0.000000e+00
-3.024000e+00 0.000000e+00 0.000000e+00
-2.940000e+00 0.000000e+00 0.000000e+00
-2.856000e+00 0.000000e+00 0.000000e+00
-2.772000e+00 0.000000e+00 0.000000e+00
-2.688000e+00 0.000000e+00 0.000000e+00
-3.024000e+00 6.412500e-02 0.000000e+00
-2.940000e+00 6.412500e-02 0.000000e+00
-2.856000e+00 6.412500e-02 0.000000e+00
-2.772000e+00 6.412500e-02 0.000000e+00
-2.688000e+00 6.412500e-02 0.000000e+00
-3.024000e+00 1.282500e-01 0.000000e+00
-2.940000e+00 1.282500e-01 0.000000e+00
-2.856000e+00 1.282500e-01 0.000000e+00
-2.772000e+00 1.282500e-01 0.000000e+00
-2.688000e+00 1.282500e-01 0.000000e+00
-3.024000e+00 1.923750e-01 0.000000e+00
-2.940000e+00 1.923750e-01 0.000000e+00
-2.856000e+00 1.923750e-01 0.000000e+00
-2.772000e+00 1.923750e-01 0.000000e+00
-2.688000e+00 1.923750e-01 0.000000e+00
-3.024000e+00 2.565000e-01 0.000000e+00
-2.940000e+00 2.565000e-01 0.000000e+00
-2.856000e+00 2.565000e-01 0.000000e+00
-2.772000e+00 2.565000e-01 0.000000e+00
-2.688000e+00 2.565000e-01 0.000000e+00
-2.688000e+00 0.000000e+00 0.000000e+00
-2.604000e+00 0.000000e+00 0.000000e+00
-2.520000e+00 0.000000e+00 0.000000e+00
-2.436000e+00 0.000000e+00 0.000000e+00
-2.352000e+00 0.000000e+00 0.000000e+00
-2.688000e+00 6.412500e-02 0.000000e+00
-2.604000e+00 6.412500e-02 0.000000e+00
-2.520000e+00 6.412500e-02 0.000000e+00
-2.436000e+00 6.412500e-02 0.000000e+00
-2.352000e+00 6.412500e-02 0.000000e+00
-2.688000e+00 1.282500e-01 0.000000e+00
-2.604000e+00 1.282500e-01 0.000000e+00
-2.520000e+00 1.282500e-01 0.000000e+00
-2.436000e+00 1.282500e-01 0.000000e+00
-2.352000e+00 1.282500e-01 0.000000e+00
-2.688000e+00 1.923750e-01 0.000000e+00
-2.604000e+00 1.923750e-01 0.000000e+00
-2.520000e+00 1.923750e-01 0.000000e+00
-2.436000e+00 1.923750e-01 0.000000e+00
-2.352000e+00 1.923750e-01 0.000000e+00
-2.688000e+00 2.565000e-01 0.000000e+00
-2.604000e+00 2.565000e-01 0.000000e+00
-2.520000e+00 2.565000e-01 0.000000e+00
-2.436000e+00 2.565000e-01 0.000000e+00
-2.352000e+00 2.565000e-01 0.000000e+00
-2.352000e+00 0.000000e+00 0.000000e+00
-2.268000e+00 0.000000e+00 0.000000e+00
-2.184000e+00 0.000000e+00 0.000000e+00
-2.100000e+00 0.000000e+00 0.000000e+00
-2.016000e+00 0.000000e+00 0.000000e+00
-2.352000e+00 6.412500e-02 0.000000e+00
-2.268000e+00 6.412500e-02 0.000000e+00
-2.184000e+00 6.412500e-02 0.000000e+00
-2.100000e+00 6.412500e-02 0.000000e+00
-2.016000e+00 6.412500e-02 0.000000e+00
-2.352000e+00 1.282500e-01 0.000000e+00
-2.268000e+00 1.282500e-01 0.000000e+00
-2.184000e+00 1.282500e-01 0.000000e+00
-2.100000e+00 1.282500e-01 0.000000e+00
-2.016000e+00 1.282500e-01 0.000000e+00
-2.352000e+00 1.923750e-01 0.000000e+00
-2.268000e+00 1.923750e-01 0.000000e+00
-2.184000e+00 1.923750e-01 0.000000e+00
-2.100000e+00 1.923750e-01 0.000000e+00
-2.016000e+00 1.923750e-01 0.000000e+00
-2.352000e+00 2.565000e-01 0.000000e+00
-2.268000e+00 2.565000e-01 0.000000e+00
-2.184000e+00 2.565000e-01 0.000000e+00
-2.100000e+00 2.565000e-01 0.000000e+00
-2.016000e+00 2.565000e-01 0.000000e+00
-2.016000e+00 0.000000e+00 0.000000e+00
-1.932000e+00 0.000000e+00 0.000000e+00
-1.848000e+00 0.000000e+00 0.000000e+00
-1.764000e+00 0.000000e+00 0.000000e+00
-1.680000e+00 0.000000e+00 0.000000e+00
-2.016000e+00 6.412500e-02 0.000000e+00
-1.932000e+00 6.412500e-02 0.000000e+00
-1.848000e+00 6.412500e-02 0.000000e+00
-1.764000e+00 6.412500e-02 0.000000e+00
-1.680000e+00 6.412500e-02 0.000000e+00
-2.016000e+00 1.282500e-01 0.000000e+00
-1.932000e+00 1.282500e-01 0.000000e+00
-1.848000e+00 1.282500e-01 0.000000e+00
-1.764000e+00 1.282500e-01 0.000000e+00
-1.680000e+00 1.282500e-01 0.000000e+00
-2.016000e+00 1.923750e-01 0.000000e+00
-1.932000e+00 1.923750e-01 0.000000e+00
-1.848000e+00 1.923750e-01 0.000000e+00
-1.764000e+00 1.923750e-01 0.000000e+00
-1.680000e+00 1.923750e-01 0.000000e+00
-2.016000e+00 2.565000e-01 0.000000e+00
-1.932000e+00 2.565000e-01 0.000000e+00
-1.848000e+00 2.565000e-01 0.000000e+00
-1.764000e+00 2.565000e-01 0.000000e+00
-1.680000e+00 2.565000e-01 0.000000e+00
-1.680000e+00 0.000000e+00 0.000000e+00
-1.596000e+00 0.000000e+00 0.000000e+00
-1.512000e+00 0.000000e+00 0.000000e+00
-1.428000e+00 0.000000e+00 0.000000e+00
-1.344000e+00 0.000000e+00 0.000000e+00
-1.680000e+00 6.412500e-02 0.000000e+00
-1.596000e+00 6.412500e-02 0.000000e+00
-1.512000e+00 6.412500e-02 0.000000e+00
-1.428000e+00 6.412500e-02 0.000000e+00
-1.344000e+00 6.412500e-02 0.000000e+00
-1.680000e+00 1.282500e-01 0.000000e+00
-1.596000e+00 1.282500e-01 0.000000e+00
-1.512000e+00 1.282500e-01 0.000000e+00
-1.428000e+00 1.282500e-01 0.000000e+00
-1.344000e+00 1.282500e-01 0.000000e+00
-1.680000e+00 1.923750e-01 0.000000e+00
-1.596000e+00 1.923750e-01 0.000000e+00
-1.512000e+00 1.923750e-01 0.000000e+00
-1.428000e+00 1.923750e-01 0.000000e+00
-1.344000e+00 1.923750e-01 0.000000e+00
-1.680000e+00 2.565000e-01 0.000000e+00
-1.596000e+00 2.565000e-01 0.000000e+00
-1.512000e+00 2.565000e-01 0.000000e+00
-1.428000e+00 2.565000e-01 0.000000e+00
-1.344000e+00 2.565000e-01 0.000000e+00
-1.344000e+00 0.000000e+00 0.000000e+00
-1.260000e+00 0.000000e+00 0.000000e+00
-1.176000e+00 0.000000e+00 0.000000e+00
-1.092000e+00 0.000000e+00 0.000000e+00
-1.008000e+00 0.000000e+00 0.000000e+00
-1.344000e+00 6.412500e-02 0.000000e+00
-1.260000e+00 6.412500e-02 0.000000e+00
-1.176000e+00 6.412500e-02 0.000000e+00
-1.092000e+00 6.412500e-02 0.000000e+00
-1.008000e+00 6.412500e-02 0.000000e+00
-1.344000e+00 1.282500e-01 0.000000e+00
-1.260000e+00 1.282500e-01 0.000000e+00
-1.176000e+00 1.282500e-01 0.000000e+00
-1.092000e+00 1.282500e-01 0.000000e+00
-1.008000e+00 1.282500e-01 0.000000e+00
-1.344000e+00 1.923750e-01 0.000000e+00
-1.260000e+00 1.923750e-01 0.000000e+00
-1.176000e+00 1.923750e-01 0.000000e+00
-1.092000e+00 1.923750e-01 0.000000e+00
-1.008000e+00 1.923750e-01 0.000000e+00
-1.344000e+00 2.565000e-01 0.000000e+00
-1.260000e+00 2.565000e-01 0.000000e+00
-1.176000e+00 2.565000e-01 0.000000e+00
-1.092000e+00 2.565000e-01 0.000000e+00
-1.008000e+00 2.565000e-01 0.000000e+00
-1.008000e+00 0.000000e+00 0.000000e+00
-9.240000e-01 0.000000e+00 0.000000e+00
-8.400000e-01 0.000000e+00 0.000000e+00
-7.560000e-01 0.000000e+00 0.000000e+00
-6.720000e-01 0.000000e+00 0.000000e+00
-1.008000e+00 6.412500e-02 0.000000e+00
-9.240000e-01 6.412500e-02 0.000000e+00
-8.400000e-01 6.412500e-02 0.000000e+00
-7.560000e-01 6.412500e-02 0.000000e+00
-6.720000e-01 6.412500e-02 0.000000e+00
-1.008000e+00 1.282500e-01 0.000000e+00
-9.240000e-01 1.282500e-01 0.000000e+00
-8.400000e-01 1.282500e-01 0.000000e+00
-7.560000e-01 1.282500e-01 0.000000e+00
-6.720000e-01 1.282500e-01 0.000000e+00
-1.008000e+00 1.923750e-01 0.000000e+00
-9.240000e-01 1.923750e-01 0.000000e+00
-8.400000e-01 1.923750e-01 0.000000e+00
-7.560000e-01 1.923750e-01 0.000000e+00
-6.720000e-01 1.923750e-01 0.000000e+00
-1.008000e+00 2.565000e-01 0.000000e+00
-9.240000e-01 2.565000e-01 0.000000e+00
-8.400000e-01 2.565000e-01 0.000000e+00
-7.560000e-01 2.565000e-01 0.000000e+00
-6.720000e-01 2.565000e-01 0.000000e+00
-6.720000e-01 0.000000e+00 0.000000e+00
-5.880000e-01 0.000000e+00 0.000000e+00
-5.040000e-01 0.000000e+00 0.000000e+00
-4.200000e-01 0.000000e+00 0.000000e+00
-3.360000e-01 0.000000e+00 0.000000e+00
-6.720000e-01 6.412500e-02 0.000000e+00
-5.880000e-01 6.412500e-02 0.000000e+00
-5.040000e-01 6.412500e-02 0.000000e+00
-4.200000e-01 6.412500e-02 0.000000e+00
-3.360000e-01 6.412500e-02 0.000000e+00
-6.720000e-01 1.282500e-01 0.000000e+00
-5.880000e-01 1.282500e-01 0.000000e+00
-5.040000e-01 1.282500e-01 0.000000e+00
-4.200000e-01 1.282500e-01 0.000000e+00
-3.360000e-01 1.282500e-01 0.000000e+00
-6.720000e-01 1.923750e-01 0.000000e+00
-5.880000e-01 1.923750e-01 0.000000e+00
-5.040000e-01 1.923750e-01 0.000000e+00
-4.200000e-01 1.923750e-01 0.000000e+00
-3.360000e-01 1.923750e-01 0.000000e+00
-6.720000e-01 2.565000e-01 0.000000e+00
-5.880000e-01 2.565000e-01 0.000000e+00
-5.040000e-01 2.565000e-01 0.000000e+00
-4.200000e-01 2.565000e-01 0.000000e+00
-3.360000e-01 2.565000e-01 0.000000e+00
-3.360000e-01 0.000000e+00 0.000000e+00
-2.520000e-01 0.000000e+00 0.000000e+00
-1.680000e-01 0.000000e+00 0.000000e+00
-8.400000e-02 0.000000e+00 0.000000e+00
-4.440890e-16 0.000000e+00 0.000000e+00
-3.360000e-01 6.412500e-02 0.000000e+00
-2.520000e-01 6.412500e-02 0.000000e+00
-1.680000e-01 6.412500e-02 0.000000e+00
-8.400000e-02 6.412500e-02 0.000000e+00
-4.440890e-16 6.412500e-02 0.000000e+00
-3.360000e-01 1.282500e-01 0.000000e+00
-2.520000e-01 1.282500e-01 0.000000e+00
-1.680000e-01 1.282500e-01 0.000000e+00
-8.400000e-02 1.282500e-01 0.000000e+00
-4.440890e-16 1.282500e-01 0.000000e+00
-3.360000e-01 1.923750e-01 0.000000e+00
-2.520000e-01 1.923750e-01 0.000000e+00
-1.680000e-01 1.923750e-01 0.000000e+00
[...]
<PointData>
<DataArray type="Float32" Name="V1" format="ascii">
0.000000e+00
0.000000e+00
0.000000e+00
0.000000e+00
0.000000e+00
6.347820e-02
5.961610e-02
5.533890e-02
5.064670e-02
4.553950e-02
1.013490e-01
9.770370e-02
9.289990e-02
8.693730e-02
7.981590e-02
1.136110e-01
1.142630e-01
1.126830e-01
1.088720e-01
1.028290e-01
1.002660e-01
1.092930e-01
1.146880e-01
1.164500e-01
1.145800e-01
0.000000e+00
0.000000e+00
0.000000e+00
0.000000e+00
0.000000e+00
4.553950e-02
4.012710e-02
3.621040e-02
3.378940e-02
3.286420e-02
7.981590e-02
7.203000e-02
6.628990e-02
6.259570e-02
6.094740e-02
1.028290e-01
9.570860e-02
9.023850e-02
8.641890e-02
8.424980e-02
1.145800e-01
1.111630e-01
1.080560e-01
1.052590e-01
1.027710e-01
0.000000e+00
0.000000e+00
0.000000e+00
0.000000e+00
0.000000e+00
3.286420e-02
3.215460e-02
3.171990e-02
3.156020e-02
3.167540e-02
6.094740e-02
5.978930e-02
5.915490e-02
5.904430e-02
5.945740e-02
8.424980e-02
8.290420e-02
8.230510e-02
8.245240e-02
8.334620e-02
1.027710e-01
1.014990e-01
1.011700e-01
1.017850e-01
1.033420e-01
0.000000e+00
0.000000e+00
0.000000e+00
0.000000e+00
0.000000e+00
3.167540e-02
3.191450e-02
3.247790e-02
3.336560e-02
3.457760e-02
5.945740e-02
6.010720e-02
6.129300e-02
6.301480e-02
6.527250e-02
8.334620e-02
8.457830e-02
8.644540e-02
8.894750e-02
9.208480e-02
1.033420e-01
1.053280e-01
1.079350e-01
1.111640e-01
1.150140e-01
0.000000e+00
0.000000e+00
0.000000e+00
0.000000e+00
0.000000e+00
3.457760e-02
3.599230e-02
3.770950e-02
3.972940e-02
4.205170e-02
6.527250e-02
6.789630e-02
7.105570e-02
7.475060e-02
7.898100e-02
9.208480e-02
9.571220e-02
1.000380e-01
1.050640e-01
1.107880e-01
1.150140e-01
1.194400e-01
1.246580e-01
1.306690e-01
1.374720e-01
0.000000e+00
0.000000e+00
0.000000e+00
0.000000e+00
0.000000e+00
4.205170e-02
4.462730e-02
4.774860e-02
5.141580e-02
5.562880e-02
7.898100e-02
8.365170e-02
8.924140e-02
9.575010e-02
1.031780e-01
1.107880e-01
1.170730e-01
1.244780e-01
1.330030e-01
1.426470e-01
1.374720e-01
1.448920e-01
1.534590e-01
1.631740e-01
1.740370e-01
0.000000e+00
0.000000e+00
0.000000e+00
0.000000e+00
0.000000e+00
5.562880e-02
6.009530e-02
6.554930e-02
7.199060e-02
7.941930e-02
1.031780e-01
1.110310e-01
1.205170e-01
1.316350e-01
1.443860e-01
1.426470e-01
1.528070e-01
1.649030e-01
1.789340e-01
1.949010e-01
1.740370e-01
1.854240e-01
1.987080e-01
2.138880e-01
2.309640e-01
0.000000e+00
0.000000e+00
0.000000e+00
0.000000e+00
0.000000e+00
7.941930e-02
8.681730e-02
9.598740e-02
1.069300e-01
1.196440e-01
1.443860e-01
1.570910e-01
1.726510e-01
1.910680e-01
2.123410e-01
1.949010e-01
2.108200e-01
2.299910e-01
2.524140e-01
2.780910e-01
2.309640e-01
2.480050e-01
2.680070e-01
2.909690e-01
3.168930e-01
0.000000e+00
0.000000e+00
0.000000e+00
0.000000e+00
0.000000e+00
1.196440e-01
1.320610e-01
1.467560e-01
1.637270e-01
1.829750e-01
2.123410e-01
2.332450e-01
2.577370e-01
2.858170e-01
3.174840e-01
2.780910e-01
3.035510e-01
3.329440e-01
3.662690e-01
4.035270e-01
3.168930e-01
3.429800e-01
3.723770e-01
4.050850e-01
4.411050e-01
0.000000e+00
0.000000e+00
0.000000e+00
0.000000e+00
0.000000e+00
1.829750e-01
2.040570e-01
2.255950e-01
2.475900e-01
2.700400e-01
3.174840e-01
3.524580e-01
3.882230e-01
4.247800e-01
4.621290e-01
4.035270e-01
4.452030e-01
4.878840e-01
5.315720e-01
5.762650e-01
4.411050e-01
4.822910e-01
5.245780e-01
5.679640e-01
6.124500e-01
0.000000e+00
0.000000e+00
0.000000e+00
0.000000e+00
0.000000e+00
2.700400e-01
2.989040e-01
3.232670e-01
3.431290e-01
3.584920e-01
4.621290e-01
5.102680e-01
5.518580e-01
5.868990e-01
6.153910e-01
5.762650e-01
6.340920e-01
6.857720e-01
7.313070e-01
7.706960e-01
6.124500e-01
6.703760e-01
7.250110e-01
7.763560e-01
8.244090e-01
0.000000e+00
0.000000e+00
0.000000e+00
0.000000e+00
0.000000e+00
3.584920e-01
3.740220e-01
3.816070e-01
3.812450e-01
3.729380e-01
6.153910e-01
6.450490e-01
6.626230e-01
6.681110e-01
6.615140e-01
7.706960e-01
8.130820e-01
8.430490e-01
8.605970e-01
8.657270e-01
8.244090e-01
8.781200e-01
9.228850e-01
9.587040e-01
9.855780e-01
0.000000e+00
0.000000e+00
0.000000e+00
0.000000e+00
0.000000e+00
3.729380e-01
3.445420e-01
3.122520e-01
2.760660e-01
2.359860e-01
6.615140e-01
6.233740e-01
5.770800e-01
5.226300e-01
4.600250e-01
8.657270e-01
8.364960e-01
7.944840e-01
7.396910e-01
6.721170e-01
9.855780e-01
9.839070e-01
9.644650e-01
9.272490e-01
8.722620e-01
0.000000e+00
0.000000e+00
0.000000e+00
0.000000e+00
0.000000e+00
2.359860e-01
1.913980e-01
1.503920e-01
1.129700e-01
7.912960e-02
4.600250e-01
3.843310e-01
3.119450e-01
2.428680e-01
1.770980e-01
6.721170e-01
5.788000e-01
4.846590e-01
3.896940e-01
2.939040e-01
8.722620e-01
7.748050e-01
6.685340e-01
5.534480e-01
4.295480e-01
0.000000e+00
0.000000e+00
0.000000e+00
0.000000e+00
0.000000e+00
7.912960e-02
5.702250e-02
3.640780e-02
1.728540e-02
-3.446380e-04
1.770980e-01
1.324030e-01
9.195240e-02
5.574550e-02
2.378230e-02
2.939040e-01
2.261420e-01
1.666340e-01
1.153800e-01
7.238080e-02
4.295480e-01
3.382380e-01
2.604520e-01
1.961900e-01
1.454510e-01
0.000000e+00
0.000000e+00
0.000000e+00
0.000000e+00
0.000000e+00
-3.446380e-04
-1.275020e-02
-1.819460e-02
-1.667780e-02
-8.199880e-03
2.378230e-02
1.017680e-03
-9.841830e-03
-8.796220e-03
4.154490e-03
7.238080e-02
4.130360e-02
2.505830e-02
2.364480e-02
3.706310e-02
1.454510e-01
1.081080e-01
8.650570e-02
8.064520e-02
9.052600e-02
0.000000e+00
0.000000e+00
0.000000e+00
0.000000e+00
0.000000e+00
-8.199880e-03
-3.534430e-03
1.616320e-03
7.252380e-03
1.337370e-02
4.154490e-03
1.142420e-02
1.930850e-02
2.780760e-02
3.692140e-02
3.706310e-02
4.487570e-02
5.307660e-02
6.166570e-02
7.064310e-02
9.052600e-02
9.682040e-02
1.029210e-01
1.088270e-01
1.145390e-01
0.000000e+00
0.000000e+00
0.000000e+00
0.000000e+00
0.000000e+00
1.337370e-02
1.803450e-02
2.148480e-02
2.372450e-02
2.475380e-02
3.692140e-02
4.367640e-02
4.848890e-02
5.135880e-02
5.228620e-02
7.064310e-02
7.692570e-02
8.101230e-02
8.290280e-02
8.259730e-02
1.145390e-01
1.177820e-01
1.190550e-01
1.183570e-01
1.156870e-01
0.000000e+00
0.000000e+00
0.000000e+00
0.000000e+00
0.000000e+00
2.475380e-02
2.617940e-02
2.690190e-02
2.692140e-02
2.623770e-02
5.228620e-02
5.392380e-02
5.448610e-02
5.397330e-02
5.238520e-02
8.259730e-02
8.323310e-02
8.275260e-02
8.115560e-02
7.844230e-02
1.156870e-01
1.141070e-01
1.117010e-01
1.084690e-01
1.044090e-01
0.000000e+00
0.000000e+00
0.000000e+00
0.000000e+00
0.000000e+00
2.623770e-02
2.636750e-02
2.537850e-02
2.327070e-02
2.004400e-02
5.238520e-02
5.186690e-02
4.986810e-02
4.638890e-02
4.142920e-02
7.844230e-02
7.649800e-02
7.346870e-02
6.935460e-02
6.415560e-02
1.044090e-01
1.002610e-01
9.618040e-02
9.216790e-02
8.822330e-02
1.002660e-01
1.092930e-01
1.146880e-01
1.164500e-01
1.145800e-01
9.945850e-02
1.076660e-01
1.135700e-01
1.171710e-01
1.184680e-01
9.848610e-02
1.056970e-01
1.116330e-01
1.162920e-01
1.196770e-01
9.734850e-02
1.033860e-01
1.088750e-01
1.138140e-01
1.182050e-01
9.604590e-02
1.007330e-01
1.052970e-01
1.097370e-01
1.140540e-01
1.145800e-01
1.111630e-01
1.080560e-01
1.052590e-01
1.027710e-01
1.184680e-01
1.177620e-01
1.167810e-01
1.155260e-01
1.139970e-01
1.196770e-01
1.210170e-01
1.217060e-01
1.217410e-01
1.211240e-01
1.182050e-01
1.209310e-01
1.228310e-01
1.239050e-01
1.241520e-01
1.140540e-01
1.175020e-01
1.201560e-01
1.220160e-01
1.230820e-01
1.027710e-01
1.014990e-01
1.011700e-01
1.017850e-01
1.033420e-01
1.139970e-01
1.132120e-01
1.133030e-01
1.142690e-01
1.161110e-01
1.211240e-01
1.208790e-01
1.214000e-01
1.226870e-01
1.247390e-01
1.241520e-01
1.245020e-01
1.254640e-01
1.270380e-01
1.292250e-01
1.230820e-01
1.240790e-01
1.254930e-01
1.273230e-01
1.295700e-01
1.033420e-01
1.053280e-01
1.079350e-01
1.111640e-01
1.150140e-01
1.161110e-01
1.184680e-01
1.214460e-01
1.250440e-01
1.292640e-01
1.247390e-01
1.273460e-01
1.305570e-01
1.343740e-01
1.387950e-01
1.292250e-01
1.319610e-01
1.352700e-01
1.391520e-01
1.436080e-01
1.295700e-01
1.323140e-01
1.355840e-01
1.393800e-01
1.437020e-01
1.150140e-01
1.194400e-01
1.246580e-01
1.306690e-01
1.374720e-01
1.292640e-01
1.340280e-01
1.395870e-01
1.459410e-01
1.530900e-01
1.387950e-01
1.437250e-01
1.494320e-01
1.559140e-01
1.631720e-01
1.436080e-01
1.485330e-01
1.541930e-01
1.605890e-01
1.677200e-01
1.437020e-01
1.484490e-01
1.538700e-01
1.599650e-01
1.667320e-01
1.374720e-01
1.448920e-01
1.534590e-01
1.631740e-01
1.740370e-01
1.530900e-01
1.608240e-01
1.696750e-01
1.796430e-01
1.907280e-01
1.631720e-01
1.709750e-01
1.798490e-01
1.897920e-01
2.008050e-01
1.677200e-01
1.753460e-01
1.839790e-01
1.936200e-01
2.042690e-01
1.667320e-01
1.739360e-01
1.820680e-01
1.911290e-01
2.011190e-01
1.740370e-01
1.854240e-01
1.987080e-01
2.138880e-01
2.309640e-01
1.907280e-01
2.021940e-01
2.155030e-01
2.306530e-01
2.476460e-01
2.008050e-01
2.120860e-01
2.251390e-01
2.399640e-01
2.565600e-01
2.042690e-01
2.150990e-01
2.276160e-01
2.418190e-01
2.577070e-01
2.011190e-01
2.112340e-01
2.229340e-01
2.362180e-01
2.510860e-01
2.309640e-01
2.480050e-01
2.680070e-01
2.909690e-01
3.168930e-01
2.476460e-01
2.642710e-01
2.838820e-01
3.064790e-01
3.320610e-01
2.565600e-01
2.725040e-01
2.914570e-01
3.134200e-01
3.383930e-01
2.577070e-01
2.727030e-01
2.907320e-01
3.117940e-01
3.358890e-01
2.510860e-01
2.648700e-01
2.817080e-01
3.016010e-01
3.245480e-01
3.168930e-01
3.429800e-01
3.723770e-01
4.050850e-01
4.411050e-01
3.320610e-01
3.571580e-01
3.859120e-01
4.183240e-01
4.543940e-01
3.383930e-01
3.622140e-01
3.900480e-01
4.218940e-01
4.577520e-01
3.358890e-01
3.581490e-01
3.847850e-01
4.157950e-01
4.511790e-01
3.245480e-01
3.449630e-01
3.701230e-01
4.000270e-01
4.346760e-01
4.411050e-01
4.822910e-01
5.245780e-01
5.679640e-01
6.124500e-01
4.543940e-01
4.951720e-01
5.377480e-01
5.821210e-01
6.282930e-01
4.577520e-01
4.977880e-01
5.402300e-01
5.850770e-01
6.323300e-01
4.511790e-01
4.901400e-01
5.320240e-01
5.768300e-01
6.245590e-01
4.346760e-01
4.722280e-01
5.131300e-01
5.573810e-01
6.049810e-01
6.124500e-01
6.703760e-01
7.250110e-01
7.763560e-01
8.244090e-01
6.282930e-01
6.903610e-01
7.492200e-01
8.048730e-01
8.573170e-01
6.323300e-01
6.979270e-01
7.603920e-01
8.197240e-01
8.759230e-01
6.245590e-01
6.930760e-01
7.585260e-01
8.209100e-01
8.802280e-01
6.049810e-01
6.758060e-01
7.436220e-01
8.084310e-01
8.702310e-01
8.244090e-01
8.781200e-01
9.228850e-01
9.587040e-01
9.855780e-01
8.573170e-01
9.202870e-01
9.738180e-01
1.017910e+00
1.052560e+00
8.759230e-01
9.473670e-01
1.008900e+00
1.060530e+00
1.102260e+00
8.802280e-01
9.593590e-01
1.028140e+00
1.086570e+00
1.134650e+00
8.702310e-01
9.562630e-01
1.031530e+00
1.096020e+00
1.149750e+00
9.855780e-01
9.839070e-01
9.644650e-01
9.272490e-01
8.722620e-01
1.052560e+00
1.061650e+00
1.055660e+00
1.034610e+00
9.984840e-01
1.102260e+00
1.119630e+00
1.123950e+00
1.115220e+00
1.093440e+00
1.134650e+00
1.157870e+00
1.169350e+00
1.169100e+00
1.157120e+00
1.149750e+00
1.176350e+00
1.191840e+00
1.196240e+00
1.189540e+00
8.722620e-01
7.748050e-01
6.685340e-01
5.534480e-01
4.295480e-01
9.984840e-01
9.198310e-01
8.244710e-01
7.124030e-01
5.836270e-01
1.093440e+00
1.029930e+00
9.462760e-01
8.424620e-01
7.184930e-01
1.157120e+00
1.105120e+00
1.033950e+00
9.436270e-01
8.341470e-01
1.189540e+00
1.145370e+00
1.087490e+00
1.015900e+00
9.305880e-01
4.295480e-01
3.382380e-01
2.604520e-01
1.961900e-01
1.454510e-01
5.836270e-01
4.716310e-01
3.753510e-01
2.947880e-01
2.299410e-01
7.184930e-01
5.963730e-01
4.886220e-01
3.952410e-01
3.162290e-01
8.341470e-01
7.124650e-01
6.002650e-01
4.975480e-01
4.043130e-01
9.305880e-01
8.199060e-01
7.102800e-01
6.017100e-01
4.941940e-01
1.454510e-01
1.081080e-01
8.650570e-02
8.064520e-02
9.052600e-02
2.299410e-01
1.820530e-01
1.510090e-01
1.368100e-01
1.394550e-01
3.162290e-01
2.574750e-01
2.164470e-01
1.931450e-01
1.875680e-01
4.043130e-01
3.343740e-01
2.828200e-01
2.496510e-01
2.348670e-01
4.941940e-01
4.127500e-01
3.501270e-01
3.063280e-01
2.813500e-01
9.052600e-02
9.682040e-02
1.029210e-01
1.088270e-01
1.145390e-01
1.394550e-01
1.421450e-01
1.449330e-01
1.478160e-01
1.507970e-01
1.875680e-01
1.851180e-01
1.833750e-01
1.823410e-01
1.820150e-01
2.348670e-01
2.257370e-01
2.182480e-01
2.124000e-01
2.081930e-01
2.813500e-01
2.640040e-01
2.495520e-01
2.379950e-01
2.293320e-01
1.145390e-01
1.177820e-01
1.190550e-01
1.183570e-01
1.156870e-01
1.507970e-01
1.510390e-01
1.494710e-01
1.460910e-01
1.408990e-01
1.820150e-01
1.791670e-01
1.747500e-01
1.687640e-01
1.612100e-01
2.081930e-01
2.021650e-01
1.948940e-01
1.863780e-01
1.766180e-01
2.293320e-01
2.200350e-01
2.099010e-01
1.989310e-01
1.871250e-01
1.156870e-01
1.141070e-01
1.117010e-01
1.084690e-01
1.044090e-01
1.408990e-01
1.375450e-01
1.334960e-01
1.287540e-01
1.233180e-01
1.612100e-01
1.561850e-01
1.506500e-01
1.446070e-01
1.380550e-01
1.766180e-01
1.700270e-01
1.631630e-01
1.560270e-01
1.486190e-01
1.871250e-01
1.790710e-01
1.710340e-01
1.630130e-01
1.550090e-01
1.044090e-01
1.002610e-01
9.618040e-02
9.216790e-02
8.822330e-02
1.233180e-01
1.180180e-01
1.130410e-01
1.083870e-01
1.040560e-01
1.380550e-01
1.317880e-01
1.260700e-01
1.209020e-01
1.162850e-01
1.486190e-01
1.415690e-01
1.352680e-01
1.297150e-01
1.249100e-01
1.550090e-01
1.473640e-01
1.406360e-01
1.348250e-01
1.299310e-01
9.604590e-02
1.007330e-01
1.052970e-01
1.097370e-01
1.140540e-01
9.458900e-02
9.875430e-02
1.028430e-01
1.068550e-01
1.107910e-01
9.299440e-02
9.678320e-02
1.004830e-01
1.040940e-01
1.076150e-01
9.126190e-02
9.481970e-02
9.821650e-02
1.014520e-01
1.045270e-01
8.939170e-02
9.286380e-02
9.604350e-02
9.893080e-02
1.015260e-01
1.140540e-01
1.175020e-01
1.201560e-01
1.220160e-01
1.230820e-01
1.107910e-01
1.141680e-01
1.169470e-01
1.191280e-01
1.207110e-01
1.076150e-01
1.108120e-01
1.135940e-01
1.159620e-01
1.179150e-01
1.045270e-01
1.074340e-01
1.100980e-01
1.125180e-01
1.146940e-01
1.015260e-01
1.040350e-01
1.064580e-01
1.087960e-01
1.110490e-01
1.230820e-01
1.240790e-01
1.254930e-01
1.273230e-01
1.295700e-01
1.207110e-01
1.221680e-01
1.239280e-01
1.259910e-01
1.283570e-01
1.179150e-01
1.197300e-01
1.217600e-01
1.240050e-01
1.264640e-01
1.146940e-01
1.167670e-01
1.189900e-01
1.213660e-01
1.238930e-01
1.110490e-01
1.132770e-01
1.156180e-01
1.180730e-01
1.206420e-01
1.295700e-01
1.323140e-01
1.355840e-01
1.393800e-01
1.437020e-01
1.283570e-01
1.311320e-01
1.343890e-01
1.381270e-01
1.423460e-01
1.264640e-01
1.292570e-01
1.324870e-01
1.361540e-01
1.402570e-01
1.238930e-01
1.266890e-01
1.298770e-01
1.334590e-01
1.374340e-01
1.206420e-01
1.234260e-01
1.265600e-01
1.300440e-01
1.338770e-01
1.437020e-01
1.484490e-01
1.538700e-01
1.599650e-01
1.667320e-01
1.423460e-01
1.469520e-01
1.521880e-01
1.580530e-01
1.645490e-01
1.402570e-01
1.447070e-01
1.497430e-01
1.553640e-01
1.615700e-01
1.374340e-01
1.417140e-01
1.465350e-01
1.518950e-01
1.577960e-01
1.338770e-01
1.379740e-01
1.425650e-01
1.476490e-01
1.532270e-01
1.667320e-01
1.739360e-01
1.820680e-01
1.911290e-01
2.011190e-01
1.645490e-01
1.714210e-01
1.791770e-01
1.878150e-01
1.973360e-01
1.615700e-01
1.680920e-01
1.754480e-01
1.836360e-01
1.926570e-01
1.577960e-01
1.639490e-01
1.708810e-01
1.785910e-01
1.870810e-01
1.532270e-01
1.589910e-01
1.654750e-01
1.726810e-01
1.806080e-01
2.011190e-01
2.112340e-01
2.229340e-01
2.362180e-01
2.510860e-01
1.973360e-01
2.069370e-01
2.180510e-01
2.306790e-01
2.448210e-01
1.926570e-01
2.016970e-01
2.121700e-01
2.240760e-01
2.374170e-01
1.870810e-01
1.955150e-01
2.052920e-01
2.164100e-01
2.288720e-01
1.806080e-01
1.883920e-01
1.974160e-01
2.076810e-01
2.191860e-01
2.510860e-01
2.648700e-01
2.817080e-01
3.016010e-01
3.245480e-01
2.448210e-01
2.577060e-01
2.736840e-01
2.927550e-01
3.149190e-01
2.374170e-01
2.493390e-01
2.643320e-01
2.823930e-01
3.035250e-01
2.288720e-01
2.397690e-01
2.536510e-01
2.705160e-01
2.903650e-01
2.191860e-01
2.289960e-01
2.416410e-01
2.571220e-01
2.754400e-01
3.245480e-01
3.449630e-01
3.701230e-01
4.000270e-01
4.346760e-01
3.149190e-01
3.335170e-01
3.574030e-01
3.865790e-01
4.210430e-01
3.035250e-01
3.200030e-01
3.422820e-01
3.703640e-01
4.042470e-01
2.903650e-01
3.044200e-01
3.247590e-01
3.513820e-01
3.842890e-01
2.754400e-01
2.867690e-01
3.048330e-01
3.296340e-01
3.611690e-01
4.346760e-01
4.722280e-01
5.131300e-01
5.573810e-01
6.049810e-01
4.210430e-01
4.569810e-01
4.964800e-01
5.395370e-01
5.861540e-01
4.042470e-01
4.371960e-01
4.740930e-01
5.149390e-01
5.597330e-01
3.842890e-01
4.128720e-01
4.459710e-01
4.835870e-01
5.257180e-01
3.611690e-01
3.840100e-01
4.121140e-01
4.454800e-01
4.841080e-01
6.049810e-01
6.758060e-01
7.436220e-01
8.084310e-01
8.702310e-01
5.861540e-01
6.590270e-01
7.279040e-01
7.927840e-01
8.536690e-01
5.597330e-01
6.329190e-01
7.003950e-01
7.621610e-01
8.182170e-01
5.257180e-01
5.974830e-01
6.610980e-01
7.165620e-01
7.638750e-01
4.841080e-01
5.527180e-01
6.100100e-01
6.559850e-01
6.906430e-01
8.702310e-01
9.562630e-01
1.031530e+00
1.096020e+00
1.149750e+00
8.536690e-01
9.432000e-01
1.021910e+00
1.089790e+00
1.146860e+00
8.182170e-01
9.099750e-01
9.906910e-01
1.060360e+00
1.118990e+00
7.638750e-01
8.565900e-01
9.378760e-01
1.007730e+00
1.066160e+00
6.906430e-01
7.830440e-01
8.634630e-01
9.318990e-01
9.883520e-01
1.149750e+00
1.176350e+00
1.191840e+00
1.196240e+00
1.189540e+00
1.146860e+00
1.177830e+00
1.199400e+00
1.211590e+00
1.214390e+00
1.118990e+00
1.152320e+00
1.178540e+00
1.197670e+00
1.209700e+00
1.066160e+00
1.099820e+00
1.129250e+00
1.154470e+00
1.175460e+00
9.883520e-01
1.020330e+00
1.051540e+00
1.081990e+00
1.111680e+00
1.189540e+00
1.145370e+00
1.087490e+00
1.015900e+00
9.305880e-01
1.214390e+00
1.168720e+00
1.113910e+00
1.049980e+00
9.769140e-01
1.209700e+00
1.164950e+00
1.114850e+00
1.059400e+00
9.985950e-01
1.175460e+00
1.134070e+00
1.090300e+00
1.044150e+00
9.956300e-01
1.111680e+00
1.076070e+00
1.040260e+00
1.004240e+00
9.680190e-01
9.305880e-01
8.199060e-01
7.102800e-01
6.017100e-01
4.941940e-01
9.769140e-01
8.816730e-01
7.820250e-01
6.779690e-01
5.695070e-01
9.985950e-01
9.178900e-01
8.288380e-01
7.314390e-01
6.256940e-01
9.956300e-01
9.285570e-01
8.507210e-01
7.621200e-01
6.627540e-01
9.680190e-01
9.136750e-01
8.476720e-01
7.700100e-01
6.806890e-01
4.941940e-01
4.127500e-01
3.501270e-01
3.063280e-01
2.813500e-01
5.695070e-01
4.852670e-01
4.171690e-01
3.652140e-01
3.294010e-01
6.256940e-01
5.426210e-01
4.723470e-01
4.148720e-01
3.701970e-01
6.627540e-01
5.848100e-01
5.156590e-01
4.553020e-01
4.037380e-01
6.806890e-01
6.118360e-01
5.471070e-01
4.865040e-01
4.300250e-01
2.813500e-01
2.640040e-01
2.495520e-01
2.379950e-01
2.293320e-01
3.294010e-01
3.024560e-01
2.796980e-01
2.611260e-01
2.467410e-01
3.701970e-01
3.348560e-01
3.047260e-01
2.798070e-01
2.600980e-01
4.037380e-01
3.612050e-01
3.246370e-01
2.940360e-01
2.694010e-01
4.300250e-01
3.815010e-01
3.394310e-01
3.038140e-01
2.746510e-01
2.293320e-01
2.200350e-01
2.099010e-01
1.989310e-01
1.871250e-01
2.467410e-01
2.340610e-01
2.210950e-01
2.078440e-01
1.943080e-01
2.600980e-01
2.445250e-01
2.291850e-01
2.140780e-01
1.992050e-01
2.694010e-01
2.514270e-01
2.341720e-01
2.176350e-01
2.018170e-01
2.746510e-01
2.547670e-01
2.360550e-01
2.185140e-01
2.021440e-01
1.871250e-01
1.790710e-01
1.710340e-01
1.630130e-01
1.550090e-01
1.943080e-01
1.847670e-01
1.756200e-01
1.668670e-01
1.585080e-01
1.992050e-01
1.884260e-01
1.783830e-01
1.690770e-01
1.605080e-01
2.018170e-01
1.900460e-01
1.793220e-01
1.696430e-01
1.610110e-01
2.021440e-01
1.896300e-01
1.784370e-01
1.685660e-01
1.600160e-01
1.550090e-01
1.473640e-01
1.406360e-01
1.348250e-01
1.299310e-01
1.585080e-01
1.505320e-01
1.435870e-01
1.376740e-01
1.327910e-01
1.605080e-01
1.523370e-01
1.452820e-01
1.393430e-01
1.345190e-01
1.610110e-01
1.527800e-01
1.457210e-01
1.398330e-01
1.351160e-01
1.600160e-01
1.518600e-01
1.449030e-01
1.391430e-01
1.345810e-01
8.939170e-02
9.286380e-02
9.604350e-02
9.893080e-02
1.015260e-01
8.740010e-02
9.062940e-02
9.357220e-02
9.622850e-02
9.859820e-02
8.530680e-02
8.829040e-02
9.100440e-02
9.344900e-02
9.562400e-02
8.311190e-02
8.584670e-02
8.834020e-02
9.059240e-02
9.260330e-02
8.081530e-02
8.329840e-02
8.557960e-02
8.765870e-02
8.953590e-02
1.015260e-01
1.040350e-01
1.064580e-01
1.087960e-01
1.110490e-01
9.859820e-02
1.008490e-01