<?xml version="1.0"?>
<VTKFile type="UnstructuredGrid" version="0.1" byte_order="LittleEndian" compressor="vtkZLibDataCompressor">
<UnstructuredGrid>
<Piece NumberOfPoints="10000" NumberOfCells="6400">
<Points>
<DataArray type="Float32" NumberOfComponents="3" format="ascii">
-3.360000e+00 0.000000e+00 0.000000e+00
-3.276000e+00 0.000000e+00 0.000000e+00
-3.192000e+00 0.000000e+00 0.000000e+00
-3.108000e+00 0.000000e+00 0.000000e+00
-3.024000e+00 0.000000e+00 0.000000e+00
-3.360000e+00 6.412500e-02 0.000000e+00
-3.276000e+00 6.412500e-02 0.000000e+00
-3.192000e+00 6.412500e-02 0.000000e+00
-3.108000e+00 6.412500e-02 0.000000e+00
-3.024000e+00 6.412500e-02 0.000000e+00
-3.360000e+00 1.282500e-01 0.000000e+00
-3.276000e+00 1.282500e-01 0.000000e+00
-3.192000e+00 1.282500e-01 0.000000e+00
-3.108000e+00 1.282500e-01 0.000000e+00
-3.024000e+00 1.282500e-01 0.000000e+00
-3.360000e+00 1.923750e-01 0.000000e+00
-3.276000e+00 1.923750e-01 0.000000e+00
-3.192000e+00 1.923750e-01 0.000000e+00
-3.108000e+00 1.923750e-01 0.000000e+00
-3.024000e+00 1.923750e-01 0.000000e+00
-3.360000e+00 2.565000e-01 0.000000e+00
-3.276000e+00 2.565000e-01 0.000000e+00
-3.192000e+00 2.565000e-01 0.000000e+00
-3.108000e+00 2.565000e-01 0.000000e+00
-3.024000e+00 2.565000e-01 0.000000e+00
-3.024000e+00 0.000000e+00 0.000000e+00
-2.940000e+00 0.000000e+00 0.000000e+00
-2.856000e+00 0.000000e+00 0.000000e+00
-2.772000e+00 0.000000e+00 0.000000e+00
-2.688000e+00 0.000000e+00 0.000000e+00
-3.024000e+00 6.412500e-02 0.000000e+00
-2.940000e+00 6.412500e-02 0.000000e+00
-2.856000e+00 6.412500e-02 0.000000e+00
-2.772000e+00 6.412500e-02 0.000000e+00
-2.688000e+00 6.412500e-02 0.000000e+00
-3.024000e+00 1.282500e-01 0.000000e+00
-2.940000e+00 1.282500e-01 0.000000e+00
-2.856000e+00 1.282500e-01 0.000000e+00
-2.772000e+00 1.282500e-01 0.000000e+00
-2.688000e+00 1.282500e-01 0.000000e+00
-3.024000e+00 1.923750e-01 0.000000e+00
-2.940000e+00 1.923750e-01 0.000000e+00
-2.856000e+00 1.923750e-01 0.000000e+00
-2.772000e+00 1.923750e-01 0.000000e+00
-2.688000e+00 1.923750e-01 0.000000e+00
-3.024000e+00 2.565000e-01 0.000000e+00
-2.940000e+00 2.565000e-01 0.000000e+00
-2.856000e+00 2.565000e-01 0.000000e+00
-2.772000e+00 2.565000e-01 0.000000e+00
-2.688000e+00 2.565000e-01 0.000000e+00
-2.688000e+00 0.000000e+00 0.000000e+00
-2.604000e+00 0.000000e+00 0.000000e+00
-2.520000e+00 0.000000e+00 0.000000e+00
-2.436000e+00 0.000000e+00 0.000000e+00
-2.352000e+00 0.000000e+00 0.000000e+00
-2.688000e+00 6.412500e-02 0.000000e+00
-2.604000e+00 6.412500e-02 0.000000e+00
-2.520000e+00 6.412500e-02 0.000000e+00
-2.436000e+00 6.412500e-02 0.000000e+00
-2.352000e+00 6.412500e-02 0.000000e+00
-2.688000e+00 1.282500e-01 0.000000e+00
-2.604000e+00 1.282500e-01 0.000000e+00
-2.520000e+00 1.282500e-01 0.000000e+00
-2.436000e+00 1.282500e-01 0.000000e+00
-2.352000e+00 1.282500e-01 0.000000e+00
-2.688000e+00 1.923750e-01 0.000000e+00
-2.604000e+00 1.923750e-01 0.000000e+00
-2.520000e+00 1.923750e-01 0.000000e+00
-2.436000e+00 1.923750e-01 0.000000e+00
-2.352000e+00 1.923750e-01 0.000000e+00
-2.688000e+00 2.565000e-01 0.000000e+00
-2.604000e+00 2.565000e-01 0.000000e+00
-2.520000e+00 2.565000e-01 0.000000e+00
-2.436000e+00 2.565000e-01 0.000000e+00
-2.352000e+00 2.565000e-01 0.000000e+00
-2.352000e+00 0.000000e+00 0.000000e+00
-2.268000e+00 0.000000e+00 0.000000e+00
-2.184000e+00 0.000000e+00 0.000000e+00
-2.100000e+00 0.000000e+00 0.000000e+00
-2.016000e+00 0.000000e+00 0.000000e+00
-2.352000e+00 6.412500e-02 0.000000e+00
-2.268000e+00 6.412500e-02 0.000000e+00
-2.184000e+00 6.412500e-02 0.000000e+00
-2.100000e+00 6.412500e-02 0.000000e+00
-2.016000e+00 6.412500e-02 0.000000e+00
-2.352000e+00 1.282500e-01 0.000000e+00
-2.268000e+00 1.282500e-01 0.000000e+00
-2.184000e+00 1.282500e-01 0.000000e+00
-2.100000e+00 1.282500e-01 0.000000e+00
-2.016000e+00 1.282500e-01 0.000000e+00
-2.352000e+00 1.923750e-01 0.000000e+00
-2.268000e+00 1.923750e-01 0.000000e+00
-2.184000e+00 1.923750e-01 0.000000e+00
-2.100000e+00 1.923750e-01 0.000000e+00
-2.016000e+00 1.923750e-01 0.000000e+00
-2.352000e+00 2.565000e-01 0.000000e+00
-2.268000e+00 2.565000e-01 0.000000e+00
-2.184000e+00 2.565000e-01 0.000000e+00
-2.100000e+00 2.565000e-01 0.000000e+00
-2.016000e+00 2.565000e-01 0.000000e+00
-2.016000e+00 0.000000e+00 0.000000e+00
-1.932000e+00 0.000000e+00 0.000000e+00
-1.848000e+00 0.000000e+00 0.000000e+00
-1.764000e+00 0.000000e+00 0.000000e+00
-1.680000e+00 0.000000e+00 0.000000e+00
-2.016000e+00 6.412500e-02 0.000000e+00
-1.932000e+00 6.412500e-02 0.000000e+00
-1.848000e+00 6.412500e-02 0.000000e+00
-1.764000e+00 6.412500e-02 0.000000e+00
-1.680000e+00 6.412500e-02 0.000000e+00
-2.016000e+00 1.282500e-01 0.000000e+00
-1.932000e+00 1.282500e-01 0.000000e+00
-1.848000e+00 1.282500e-01 0.000000e+00
-1.764000e+00 1.282500e-01 0.000000e+00
-1.680000e+00 1.282500e-01 0.000000e+00
-2.016000e+00 1.923750e-01 0.000000e+00
-1.932000e+00 1.923750e-01 0.000000e+00
-1.848000e+00 1.923750e-01 0.000000e+00
-1.764000e+00 1.923750e-01 0.000000e+00
-1.680000e+00 1.923750e-01 0.000000e+00
-2.016000e+00 2.565000e-01 0.000000e+00
-1.932000e+00 2.565000e-01 0.000000e+00
-1.848000e+00 2.565000e-01 0.000000e+00
-1.764000e+00 2.565000e-01 0.000000e+00
-1.680000e+00 2.565000e-01 0.000000e+00
-1.680000e+00 0.000000e+00 0.000000e+00
-1.596000e+00 0.000000e+00 0.000000e+00
-1.512000e+00 0.000000e+00 0.000000e+00
-1.428000e+00 0.000000e+00 0.000000e+00
-1.344000e+00 0.000000e+00 0.000000e+00
-1.680000e+00 6.412500e-02 0.000000e+00
-1.596000e+00 6.412500e-02 0.000000e+00
-1.512000e+00 6.412500e-02 0.000000e+00
-1.428000e+00 6.412500e-02 0.000000e+00
-1.344000e+00 6.412500e-02 0.000000e+00
-1.680000e+00 1.282500e-01 0.000000e+00
-1.596000e+00 1.282500e-01 0.000000e+00
-1.512000e+00 1.282500e-01 0.000000e+00
-1.428000e+00 1.282500e-01 0.000000e+00
-1.344000e+00 1.282500e-01 0.000000e+00
-1.680000e+00 1.923750e-01 0.000000e+00
-1.596000e+00 1.923750e-01 0.000000e+00
-1.512000e+00 1.923750e-01 0.000000e+00
-1.428000e+00 1.923750e-01 0.000000e+00
-1.344000e+00 1.923750e-01 0.000000e+00
-1.680000e+00 2.565000e-01 0.000000e+00
-1.596000e+00 2.565000e-01 0.000000e+00
-1.512000e+00 2.565000e-01 0.000000e+00
-1.428000e+00 2.565000e-01 0.000000e+00
-1.344000e+00 2.565000e-01 0.000000e+00
-1.344000e+00 0.000000e+00 0.000000e+00
-1.260000e+00 0.000000e+00 0.000000e+00
-1.176000e+00 0.000000e+00 0.000000e+00
-1.092000e+00 0.000000e+00 0.000000e+00
-1.008000e+00 0.000000e+00 0.000000e+00
-1.344000e+00 6.412500e-02 0.000000e+00
-1.260000e+00 6.412500e-02 0.000000e+00
-1.176000e+00 6.412500e-02 0.000000e+00
-1.092000e+00 6.412500e-02 0.000000e+00
-1.008000e+00 6.412500e-02 0.000000e+00
-1.344000e+00 1.282500e-01 0.000000e+00
-1.260000e+00 1.282500e-01 0.000000e+00
-1.176000e+00 1.282500e-01 0.000000e+00
-1.092000e+00 1.282500e-01 0.000000e+00
-1.008000e+00 1.282500e-01 0.000000e+00
-1.344000e+00 1.923750e-01 0.000000e+00
-1.260000e+00 1.923750e-01 0.000000e+00
-1.176000e+00 1.923750e-01 0.000000e+00
-1.092000e+00 1.923750e-01 0.000000e+00
-1.008000e+00 1.923750e-01 0.000000e+00
-1.344000e+00 2.565000e-01 0.000000e+00
-1.260000e+00 2.565000e-01 0.000000e+00
-1.176000e+00 2.565000e-01 0.000000e+00
-1.092000e+00 2.565000e-01 0.000000e+00
-1.008000e+00 2.565000e-01 0.000000e+00
-1.008000e+00 0.000000e+00 0.000000e+00
-9.240000e-01 0.000000e+00 0.000000e+00
-8.400000e-01 0.000000e+00 0.000000e+00
-7.560000e-01 0.000000e+00 0.000000e+00
-6.720000e-01 0.000000e+00 0.000000e+00
-1.008000e+00 6.412500e-02 0.000000e+00
-9.240000e-01 6.412500e-02 0.000000e+00
-8.400000e-01 6.412500e-02 0.000000e+00
-7.560000e-01 6.412500e-02 0.000000e+00
-6.720000e-01 6.412500e-02 0.000000e+00
-1.008000e+00 1.282500e-01 0.000000e+00
-9.240000e-01 1.282500e-01 0.000000e+00
-8.400000e-01 1.282500e-01 0.000000e+00
-7.560000e-01 1.282500e-01 0.000000e+00
-6.720000e-01 1.282500e-01 0.000000e+00
-1.008000e+00 1.923750e-01 0.000000e+00
-9.240000e-01 1.923750e-01 0.000000e+00
-8.400000e-01 1.923750e-01 0.000000e+00
-7.560000e-01 1.923750e-01 0.000000e+00
-6.720000e-01 1.923750e-01 0.000000e+00
-1.008000e+00 2.565000e-01 0.000000e+00
-9.240000e-01 2.565000e-01 0.000000e+00
-8.400000e-01 2.565000e-01 0.000000e+00
-7.560000e-01 2.565000e-01 0.000000e+00
-6.720000e-01 2.565000e-01 0.000000e+00
-6.720000e-01 0.000000e+00 0.000000e+00
-5.880000e-01 0.000000e+00 0.000000e+00
-5.040000e-01 0.000000e+00 0.000000e+00
-4.200000e-01 0.000000e+00 0.000000e+00
-3.360000e-01 0.000000e+00 0.000000e+00
-6.720000e-01 6.412500e-02 0.000000e+00
-5.880000e-01 6.412500e-02 0.000000e+00
-5.040000e-01 6.412500e-02 0.000000e+00
-4.200000e-01 6.412500e-02 0.000000e+00
-3.360000e-01 6.412500e-02 0.000000e+00
-6.720000e-01 1.282500e-01 0.000000e+00
-5.880000e-01 1.282500e-01 0.000000e+00
-5.040000e-01 1.282500e-01 0.000000e+00
-4.200000e-01 1.282500e-01 0.000000e+00
-3.360000e-01 1.282500e-01 0.000000e+00
-6.720000e-01 1.923750e-01 0.000000e+00
-5.880000e-01 1.923750e-01 0.000000e+00
-5.040000e-01 1.923750e-01 0.000000e+00
-4.200000e-01 1.923750e-01 0.000000e+00
-3.360000e-01 1.923750e-01 0.000000e+00
-6.720000e-01 2.565000e-01 0.000000e+00
-5.880000e-01 2.565000e-01 0.000000e+00
-5.040000e-01 2.565000e-01 0.000000e+00
-4.200000e-01 2.565000e-01 0.000000e+00
-3.360000e-01 2.565000e-01 0.000000e+00
-3.360000e-01 0.000000e+00 0.000000e+00
-2.520000e-01 0.000000e+00 0.000000e+00
-1.680000e-01 0.000000e+00 0.000000e+00
-8.400000e-02 0.000000e+00 0.000000e+00
-4.440890e-16 0.000000e+00 0.000000e+00
-3.360000e-01 6.412500e-02 0.000000e+00
-2.520000e-01 6.412500e-02 0.000000e+00
-1.680000e-01 6.412500e-02 0.000000e+00
-8.400000e-02 6.412500e-02 0.000000e+00
-4.440890e-16 6.412500e-02 0.000000e+00
-3.360000e-01 1.282500e-01 0.000000e+00
-2.520000e-01 1.282500e-01 0.000000e+00
-1.680000e-01 1.282500e-01 0.000000e+00
-8.400000e-02 1.282500e-01 0.000000e+00
-4.440890e-16 1.282500e-01 0.000000e+00
-3.360000e-01 1.923750e-01 0.000000e+00
-2.520000e-01 1.923750e-01 0.000000e+00
-1.680000e-01 1.923750e-01 0.000000e+00
[...]
<PointData>
<DataArray type="Float32" Name="V1" format="ascii">
0.000000e+00
0.000000e+00
0.000000e+00
0.000000e+00
0.000000e+00
6.347820e-02
5.960490e-02
5.534720e-02
5.070530e-02
4.567910e-02
1.013490e-01
9.768580e-02
9.291390e-02
8.703280e-02
8.004250e-02
1.136110e-01
1.142430e-01
1.127000e-01
1.089820e-01
1.030900e-01
1.002660e-01
1.092760e-01
1.147060e-01
1.165540e-01
1.148220e-01
0.000000e+00
0.000000e+00
0.000000e+00
0.000000e+00
0.000000e+00
4.567910e-02
4.040220e-02
3.664690e-02
3.441320e-02
3.370100e-02
8.004250e-02
7.248400e-02
6.701810e-02
6.364500e-02
6.236460e-02
1.030900e-01
9.624520e-02
9.111370e-02
8.769550e-02
8.599080e-02
1.148220e-01
1.116860e-01
1.089340e-01
1.065650e-01
1.045800e-01
0.000000e+00
0.000000e+00
0.000000e+00
0.000000e+00
0.000000e+00
3.370100e-02
3.319210e-02
3.294680e-02
3.296500e-02
3.324690e-02
6.236460e-02
6.155690e-02
6.125590e-02
6.146160e-02
6.217400e-02
8.599080e-02
8.509450e-02
8.492750e-02
8.548980e-02
8.678130e-02
1.045800e-01
1.038050e-01
1.039620e-01
1.050500e-01
1.070690e-01
0.000000e+00
0.000000e+00
0.000000e+00
0.000000e+00
0.000000e+00
3.324690e-02
3.365110e-02
3.439190e-02
3.546920e-02
3.688310e-02
6.217400e-02
6.311910e-02
6.461960e-02
6.667540e-02
6.928650e-02
8.678130e-02
8.840410e-02
9.068310e-02
9.361840e-02
9.721000e-02
1.070690e-01
1.095060e-01
1.125830e-01
1.162980e-01
1.206540e-01
0.000000e+00
0.000000e+00
0.000000e+00
0.000000e+00
0.000000e+00
3.688310e-02
3.851180e-02
4.047560e-02
4.277450e-02
4.540850e-02
6.928650e-02
7.228250e-02
7.586720e-02
8.004040e-02
8.480210e-02
9.721000e-02
1.013120e-01
1.061750e-01
1.117980e-01
1.181810e-01
1.206540e-01
1.256010e-01
1.313990e-01
1.380460e-01
1.455440e-01
0.000000e+00
0.000000e+00
0.000000e+00
0.000000e+00
0.000000e+00
4.540850e-02
4.829860e-02
5.180640e-02
5.593200e-02
6.067530e-02
8.480210e-02
9.000700e-02
9.624680e-02
1.035210e-01
1.118310e-01
1.181810e-01
1.251250e-01
1.333210e-01
1.427680e-01
1.534670e-01
1.455440e-01
1.536530e-01
1.630290e-01
1.736720e-01
1.855830e-01
0.000000e+00
0.000000e+00
0.000000e+00
0.000000e+00
0.000000e+00
6.067530e-02
6.563130e-02
7.172750e-02
7.896390e-02
8.734060e-02
1.118310e-01
1.204930e-01
1.310310e-01
1.434440e-01
1.577330e-01
1.534670e-01
1.645860e-01
1.779110e-01
1.934410e-01
2.111780e-01
1.855830e-01
1.979090e-01
2.123670e-01
2.289550e-01
2.476740e-01
0.000000e+00
0.000000e+00
0.000000e+00
0.000000e+00
0.000000e+00
8.734060e-02
9.554080e-02
1.057540e-01
1.179810e-01
1.322210e-01
1.577330e-01
1.717440e-01
1.889800e-01
2.094420e-01
2.331300e-01
2.111780e-01
2.286100e-01
2.496790e-01
2.743850e-01
3.027280e-01
2.476740e-01
2.661380e-01
2.878490e-01
3.128080e-01
3.410130e-01
0.000000e+00
0.000000e+00
0.000000e+00
0.000000e+00
0.000000e+00
1.322210e-01
1.461670e-01
1.624530e-01
1.810780e-01
2.020420e-01
2.331300e-01
2.565040e-01
2.835460e-01
3.142540e-01
3.486290e-01
3.027280e-01
3.310110e-01
3.632780e-01
3.995280e-01
4.397620e-01
3.410130e-01
3.696880e-01
4.016510e-01
4.369020e-01
4.754410e-01
0.000000e+00
0.000000e+00
0.000000e+00
0.000000e+00
0.000000e+00
2.020420e-01
2.256940e-01
2.491850e-01
2.725160e-01
2.956850e-01
3.486290e-01
3.877370e-01
4.267130e-01
4.655590e-01
5.042750e-01
4.397620e-01
4.861270e-01
5.325840e-01
5.791310e-01
6.257690e-01
4.754410e-01
5.208670e-01
5.667960e-01
6.132300e-01
6.601680e-01
0.000000e+00
0.000000e+00
0.000000e+00
0.000000e+00
0.000000e+00
2.956850e-01
3.260840e-01
3.509190e-01
3.701890e-01
3.838950e-01
5.042750e-01
5.551120e-01
5.978300e-01
6.324270e-01
6.589060e-01
6.257690e-01
6.870840e-01
7.407330e-01
7.867150e-01
8.250310e-01
6.601680e-01
7.220000e-01
7.796280e-01
8.330510e-01
8.822710e-01
0.000000e+00
0.000000e+00
0.000000e+00
0.000000e+00
0.000000e+00
3.838950e-01
3.949780e-01
3.978450e-01
3.924960e-01
3.789300e-01
6.589060e-01
6.822310e-01
6.928990e-01
6.909090e-01
6.762620e-01
8.250310e-01
8.617580e-01
8.851610e-01
8.952410e-01
8.919970e-01
8.822710e-01
9.335590e-01
9.746320e-01
1.005490e+00
1.026130e+00
0.000000e+00
0.000000e+00
0.000000e+00
0.000000e+00
0.000000e+00
3.789300e-01
3.423780e-01
3.034380e-01
2.621100e-01
2.183950e-01
6.762620e-01
6.251950e-01
5.677180e-01
5.038300e-01
4.335330e-01
8.919970e-01
8.484520e-01
7.928400e-01
7.251610e-01
6.454160e-01
1.026130e+00
1.012150e+00
9.788040e-01
9.261020e-01
8.540420e-01
0.000000e+00
0.000000e+00
0.000000e+00
0.000000e+00
0.000000e+00
2.183950e-01
1.753270e-01
1.350890e-01
9.768160e-02
6.310400e-02
4.335330e-01
3.579570e-01
2.853080e-01
2.155850e-01
1.487900e-01
6.454160e-01
5.478900e-01
4.506550e-01
3.537110e-01
2.570580e-01
8.540420e-01
7.451260e-01
6.311320e-01
5.120590e-01
3.879080e-01
0.000000e+00
0.000000e+00
0.000000e+00
0.000000e+00
0.000000e+00
6.310400e-02
4.110970e-02
2.257260e-02
7.492620e-03
-4.130180e-03
1.487900e-01
1.054570e-01
6.947250e-02
4.083750e-02
1.955170e-02
2.570580e-01
1.930410e-01
1.407000e-01
1.000350e-01
7.104570e-02
3.879080e-01
3.038620e-01
2.362540e-01
1.850840e-01
1.503520e-01
0.000000e+00
0.000000e+00
0.000000e+00
0.000000e+00
0.000000e+00
-4.130180e-03
-1.338050e-02
-1.584410e-02
-1.152100e-02
-4.112540e-04
1.955170e-02
2.197790e-03
-3.758160e-03
1.683830e-03
1.852380e-02
7.104570e-02
4.673490e-02
3.625790e-02
3.961460e-02
5.680510e-02
1.503520e-01
1.202310e-01
1.042040e-01
1.022710e-01
1.144330e-01
0.000000e+00
0.000000e+00
0.000000e+00
0.000000e+00
0.000000e+00
-4.112540e-04
6.365270e-03
1.237990e-02
1.763270e-02
2.212370e-02
1.852380e-02
2.903740e-02
3.810620e-02
4.573040e-02
5.190980e-02
5.680510e-02
6.801630e-02
7.717890e-02
8.429300e-02
8.935850e-02
1.144330e-01
1.233020e-01
1.295980e-01
1.333210e-01
1.344700e-01
0.000000e+00
0.000000e+00
0.000000e+00
0.000000e+00
0.000000e+00
2.212370e-02
2.608400e-02
2.879910e-02
3.026890e-02
3.049350e-02
5.190980e-02
5.723140e-02
6.064820e-02
6.216010e-02
6.176720e-02
8.935850e-02
9.344220e-02
9.554720e-02
9.567340e-02
9.382090e-02
1.344700e-01
1.347160e-01
1.334960e-01
1.308090e-01
1.266550e-01
0.000000e+00
0.000000e+00
0.000000e+00
0.000000e+00
0.000000e+00
3.049350e-02
3.127370e-02
3.146400e-02
3.106440e-02
3.007510e-02
6.176720e-02
6.230930e-02
6.196790e-02
6.074280e-02
5.863410e-02
9.382090e-02
9.310700e-02
9.151170e-02
8.903500e-02
8.567700e-02
1.266550e-01
1.236670e-01
1.200950e-01
1.159410e-01
1.112040e-01
0.000000e+00
0.000000e+00
0.000000e+00
0.000000e+00
0.000000e+00
3.007510e-02
2.992050e-02
2.872710e-02
2.649500e-02
2.322420e-02
5.863410e-02
5.764270e-02
5.530120e-02
5.160940e-02
4.656740e-02
8.567700e-02
8.316680e-02
7.972210e-02
7.534300e-02
7.002950e-02
1.112040e-01
1.064930e-01
1.019900e-01
9.769590e-02
9.361050e-02
1.002660e-01
1.092760e-01
1.147060e-01
1.165540e-01
1.148220e-01
9.945850e-02
1.076390e-01
1.135550e-01
1.172070e-01
1.185950e-01
9.848610e-02
1.056620e-01
1.115910e-01
1.162710e-01
1.197040e-01
9.734850e-02
1.033460e-01
1.088110e-01
1.137450e-01
1.181470e-01
9.604590e-02
1.006900e-01
1.052170e-01
1.096300e-01
1.139260e-01
1.148220e-01
1.116860e-01
1.089340e-01
1.065650e-01
1.045800e-01
1.185950e-01
1.181070e-01
1.174270e-01
1.165550e-01
1.154910e-01
1.197040e-01
1.212020e-01
1.221340e-01
1.224980e-01
1.222940e-01
1.181470e-01
1.209720e-01
1.230550e-01
1.243940e-01
1.249900e-01
1.139260e-01
1.174170e-01
1.201890e-01
1.222430e-01
1.235790e-01
1.045800e-01
1.038050e-01
1.039620e-01
1.050500e-01
1.070690e-01
1.154910e-01
1.151860e-01
1.157530e-01
1.171920e-01
1.195020e-01
1.222940e-01
1.224970e-01
1.234690e-01
1.252110e-01
1.277220e-01
1.249900e-01
1.257380e-01
1.271090e-01
1.291060e-01
1.317270e-01
1.235790e-01
1.249080e-01
1.266750e-01
1.288780e-01
1.315180e-01
1.070690e-01
1.095060e-01
1.125830e-01
1.162980e-01
1.206540e-01
1.195020e-01
1.223160e-01
1.257650e-01
1.298510e-01
1.345730e-01
1.277220e-01
1.307760e-01
1.344490e-01
1.387410e-01
1.436520e-01
1.317270e-01
1.348870e-01
1.386350e-01
1.429700e-01
1.478920e-01
1.315180e-01
1.346490e-01
1.383220e-01
1.425360e-01
1.472910e-01
1.206540e-01
1.256010e-01
1.313990e-01
1.380460e-01
1.455440e-01
1.345730e-01
1.398490e-01
1.459710e-01
1.529410e-01
1.607580e-01
1.436520e-01
1.490760e-01
1.553240e-01
1.623940e-01
1.702880e-01
1.478920e-01
1.532840e-01
1.594560e-01
1.664060e-01
1.741340e-01
1.472910e-01
1.524730e-01
1.583670e-01
1.649750e-01
1.722960e-01
1.455440e-01
1.536530e-01
1.630290e-01
1.736720e-01
1.855830e-01
1.607580e-01
1.691450e-01
1.787610e-01
1.896060e-01
2.016800e-01
1.702880e-01
1.787060e-01
1.882990e-01
1.990680e-01
2.110120e-01
1.741340e-01
1.823350e-01
1.916430e-01
2.020570e-01
2.135770e-01
1.722960e-01
1.800340e-01
1.887930e-01
1.985740e-01
2.093760e-01
1.855830e-01
1.979090e-01
2.123670e-01
2.289550e-01
2.476740e-01
2.016800e-01
2.140010e-01
2.284020e-01
2.448820e-01
2.634410e-01
2.110120e-01
2.230720e-01
2.371440e-01
2.532270e-01
2.713220e-01
2.135770e-01
2.251220e-01
2.385940e-01
2.539920e-01
2.713160e-01
2.093760e-01
2.201510e-01
2.327510e-01
2.471750e-01
2.634240e-01
2.476740e-01
2.661380e-01
2.878490e-01
3.128080e-01
3.410130e-01
2.634410e-01
2.813520e-01
3.025800e-01
3.271250e-01
3.549880e-01
2.713220e-01
2.884170e-01
3.089020e-01
3.327770e-01
3.600410e-01
2.713160e-01
2.873330e-01
3.068150e-01
3.297620e-01
3.561740e-01
2.634240e-01
2.781010e-01
2.963200e-01
3.180810e-01
3.433850e-01
3.410130e-01
3.696880e-01
4.016510e-01
4.369020e-01
4.754410e-01
3.549880e-01
3.825300e-01
4.138360e-01
4.489070e-01
4.877420e-01
3.600410e-01
3.861700e-01
4.165330e-01
4.511310e-01
4.899620e-01
3.561740e-01
3.806080e-01
4.097410e-01
4.435730e-01
4.821030e-01
3.433850e-01
3.658440e-01
3.934600e-01
4.262330e-01
4.641630e-01
4.754410e-01
5.208670e-01
5.667960e-01
6.132300e-01
6.601680e-01
4.877420e-01
5.331940e-01
5.798790e-01
6.277950e-01
6.769440e-01
4.899620e-01
5.350450e-01
5.819910e-01
6.308000e-01
6.814730e-01
4.821030e-01
5.264190e-01
5.731340e-01
6.222460e-01
6.737560e-01
4.641630e-01
5.073170e-01
5.533070e-01
6.021320e-01
6.537920e-01
6.601680e-01
7.220000e-01
7.796280e-01
8.330510e-01
8.822710e-01
6.769440e-01
7.441250e-01
8.070070e-01
8.655910e-01
9.198760e-01
6.814730e-01
7.534890e-01
8.211300e-01
8.843970e-01
9.432900e-01
6.737560e-01
7.500910e-01
8.219950e-01
8.894690e-01
9.525130e-01
6.537920e-01
7.339310e-01
8.096030e-01
8.808080e-01
9.475450e-01
8.822710e-01
9.335590e-01
9.746320e-01
1.005490e+00
1.026130e+00
9.198760e-01
9.804030e-01
1.030460e+00
1.070050e+00
1.099170e+00
9.432900e-01
1.012500e+00
1.070860e+00
1.118360e+00
1.155020e+00
9.525130e-01
1.029850e+00
1.095820e+00
1.150420e+00
1.193670e+00
9.475450e-01
1.032450e+00
1.105340e+00
1.166230e+00
1.215120e+00
1.026130e+00
1.012150e+00
9.788040e-01
9.261020e-01
8.540420e-01
1.099170e+00
1.096490e+00
1.078030e+00
1.043810e+00
9.938240e-01
1.155020e+00
1.160290e+00
1.152540e+00
1.131760e+00
1.097960e+00
1.193670e+00
1.203570e+00
1.202340e+00
1.189960e+00
1.166440e+00
1.215120e+00
1.226320e+00
1.227410e+00
1.218400e+00
1.199270e+00
8.540420e-01
7.451260e-01
6.311320e-01
5.120590e-01
3.879080e-01
9.938240e-01
9.011370e-01
7.942560e-01
6.731800e-01
5.379090e-01
1.097960e+00
1.020520e+00
9.238770e-01
8.080180e-01
6.729450e-01
1.166440e+00
1.103280e+00
1.020000e+00
9.165730e-01
7.930150e-01
1.199270e+00
1.149420e+00
1.082610e+00
9.988450e-01
8.981190e-01
3.879080e-01
3.038620e-01
2.362540e-01
1.850840e-01
1.503520e-01
5.379090e-01
4.347120e-01
3.502250e-01
2.844480e-01
2.373800e-01
6.729450e-01
5.584950e-01
4.620760e-01
3.836870e-01
3.233290e-01
7.930150e-01
6.752110e-01
5.718070e-01
4.828020e-01
4.081970e-01
8.981190e-01
7.848600e-01
6.794170e-01
5.817930e-01
4.919850e-01
1.503520e-01
1.202310e-01
1.042040e-01
1.022710e-01
1.144330e-01
2.373800e-01
1.957910e-01
1.697320e-01
1.592020e-01
1.642030e-01
3.233290e-01
2.703890e-01
2.340040e-01
2.141750e-01
2.109010e-01
4.081970e-01
3.440240e-01
2.970210e-01
2.671880e-01
2.545260e-01
4.919850e-01
4.166980e-01
3.587840e-01
3.182430e-01
2.950770e-01
1.144330e-01
1.233020e-01
1.295980e-01
1.333210e-01
1.344700e-01
1.642030e-01
1.700530e-01
1.731120e-01
1.733800e-01
1.708570e-01
2.109010e-01
2.123340e-01
2.111880e-01
2.074650e-01
2.011650e-01
2.545260e-01
2.501440e-01
2.438280e-01
2.355770e-01
2.253910e-01
2.950770e-01
2.834840e-01
2.710290e-01
2.577140e-01
2.435380e-01
1.344700e-01
1.347160e-01
1.334960e-01
1.308090e-01
1.266550e-01
1.708570e-01
1.672550e-01
1.626950e-01
1.571760e-01
1.506990e-01
2.011650e-01
1.938540e-01
1.861310e-01
1.779940e-01
1.694440e-01
2.253910e-01
2.145130e-01
2.038030e-01
1.932630e-01
1.828910e-01
2.435380e-01
2.292310e-01
2.157130e-01
2.029820e-01
1.910390e-01
1.266550e-01
1.236670e-01
1.200950e-01
1.159410e-01
1.112040e-01
1.506990e-01
1.460140e-01
1.408570e-01
1.352270e-01
1.291260e-01
1.694440e-01
1.632570e-01
1.567410e-01
1.498970e-01
1.427250e-01
1.828910e-01
1.753960e-01
1.677490e-01
1.599510e-01
1.520010e-01
1.910390e-01
1.824310e-01
1.738810e-01
1.653890e-01
1.569540e-01
1.112040e-01
1.064930e-01
1.019900e-01
9.769590e-02
9.361050e-02
1.291260e-01
1.233230e-01
1.179670e-01
1.130570e-01
1.085930e-01
1.427250e-01
1.360410e-01
1.300080e-01
1.246240e-01
1.198900e-01
1.520010e-01
1.446460e-01
1.381120e-01
1.323960e-01
1.275010e-01
1.569540e-01
1.491390e-01
1.422790e-01
1.363740e-01
1.314250e-01
9.604590e-02
1.006900e-01
1.052170e-01
1.096300e-01
1.139260e-01
9.458900e-02
9.871390e-02
1.027680e-01
1.067510e-01
1.106640e-01
9.299440e-02
9.674700e-02
1.004170e-01
1.040030e-01
1.075060e-01
9.126190e-02
9.478900e-02
9.816340e-02
1.013850e-01
1.044540e-01
8.939170e-02
9.283980e-02
9.600850e-02
9.889760e-02
1.015070e-01
1.139260e-01
1.174170e-01
1.201890e-01
1.222430e-01
1.235790e-01
1.106640e-01
1.140660e-01
1.169360e-01
1.192740e-01
1.210780e-01
1.075060e-01
1.107240e-01
1.135820e-01
1.160800e-01
1.182190e-01
1.044540e-01
1.073900e-01
1.101260e-01
1.126640e-01
1.150020e-01
1.015070e-01
1.040640e-01
1.065690e-01
1.090230e-01
1.114260e-01
1.235790e-01
1.249080e-01
1.266750e-01
1.288780e-01
1.315180e-01
1.210780e-01
1.228190e-01
1.248870e-01
1.272830e-01
1.300060e-01
1.182190e-01
1.202780e-01
1.225770e-01
1.251190e-01
1.279020e-01
1.150020e-01
1.172850e-01
1.197470e-01
1.223860e-01
1.252030e-01
1.114260e-01
1.138420e-01
1.163940e-01
1.190840e-01
1.219110e-01
1.315180e-01
1.346490e-01
1.383220e-01
1.425360e-01
1.472910e-01
1.300060e-01
1.331390e-01
1.367710e-01
1.409030e-01
1.455330e-01
1.279020e-01
1.310210e-01
1.345970e-01
1.386310e-01
1.431220e-01
1.252030e-01
1.282940e-01
1.318000e-01
1.357210e-01
1.400570e-01
1.219110e-01
1.249590e-01
1.283800e-01
1.321730e-01
1.363390e-01
1.472910e-01
1.524730e-01
1.583670e-01
1.649750e-01
1.722960e-01
1.455330e-01
1.505510e-01
1.562360e-01
1.625910e-01
1.696140e-01
1.431220e-01
1.479580e-01
1.534170e-01
1.594980e-01
1.662020e-01
1.400570e-01
1.446950e-01
1.499080e-01
1.556960e-01
1.620590e-01
1.363390e-01
1.407620e-01
1.457110e-01
1.511860e-01
1.571860e-01
1.722960e-01
1.800340e-01
1.887930e-01
1.985740e-01
2.093760e-01
1.696140e-01
1.769950e-01
1.853470e-01
1.946700e-01
2.049650e-01
1.662020e-01
1.731990e-01
1.811120e-01
1.899420e-01
1.996880e-01
1.620590e-01
1.686470e-01
1.760900e-01
1.843900e-01
1.935460e-01
1.571860e-01
1.633380e-01
1.702800e-01
1.780130e-01
1.865380e-01
2.093760e-01
2.201510e-01
2.327510e-01
2.471750e-01
2.634240e-01
2.049650e-01
2.151930e-01
2.271640e-01
2.408800e-01
2.563400e-01
1.996880e-01
2.093100e-01
2.205820e-01
2.335030e-01
2.480740e-01
1.935460e-01
2.025040e-01
2.130030e-01
2.250440e-01
2.386270e-01
1.865380e-01
1.947740e-01
2.044290e-01
2.155040e-01
2.279980e-01
2.634240e-01
2.781010e-01
2.963200e-01
3.180810e-01
3.433850e-01
2.563400e-01
2.699700e-01
2.872430e-01
3.081610e-01
3.327220e-01
2.480740e-01
2.605880e-01
2.767670e-01
2.966100e-01
3.201180e-01
2.386270e-01
2.499560e-01
2.648900e-01
2.834290e-01
3.055720e-01
2.279980e-01
2.380740e-01
2.516140e-01
2.686170e-01
2.890850e-01
3.433850e-01
3.658440e-01
3.934600e-01
4.262330e-01
4.641630e-01
3.327220e-01
3.531540e-01
3.793720e-01
4.113750e-01
4.491640e-01
3.201180e-01
3.380530e-01
3.624420e-01
3.932840e-01
4.305790e-01
3.055720e-01
3.205410e-01
3.426710e-01
3.719600e-01
4.084090e-01
2.890850e-01
3.006180e-01
3.200580e-01
3.474030e-01
3.826540e-01
4.641630e-01
5.073170e-01
5.533070e-01
6.021320e-01
6.537920e-01
4.491640e-01
4.909950e-01
5.356930e-01
5.832590e-01
6.336930e-01
4.305790e-01
4.694480e-01
5.112860e-01
5.560920e-01
6.038680e-01
4.084090e-01
4.426770e-01
4.800840e-01
5.206300e-01
5.643160e-01
3.826540e-01
4.106820e-01
4.420880e-01
4.768740e-01
5.150380e-01
6.537920e-01
7.339310e-01
8.096030e-01
8.808080e-01
9.475450e-01
6.336930e-01
7.179590e-01
7.961750e-01
8.683410e-01
9.344580e-01
6.038680e-01
6.898380e-01
7.673350e-01
8.363590e-01
8.969110e-01
5.643160e-01
6.495680e-01
7.230830e-01
7.848610e-01
8.349030e-01
5.150380e-01
5.971490e-01
6.634190e-01
7.138470e-01
7.484340e-01
9.475450e-01
1.032450e+00
1.105340e+00
1.166230e+00
1.215120e+00
9.344580e-01
1.023310e+00
1.100380e+00
1.165670e+00
1.219180e+00
8.969110e-01
9.875010e-01
1.066750e+00
1.134660e+00
1.191230e+00
8.349030e-01
9.250160e-01
1.004450e+00
1.073210e+00
1.131290e+00
7.484340e-01
8.358570e-01
9.134830e-01
9.813120e-01
1.039350e+00
1.215120e+00
1.226320e+00
1.227410e+00
1.218400e+00
1.199270e+00
1.219180e+00
1.234730e+00
1.240850e+00
1.237530e+00
1.224790e+00
1.191230e+00
1.209350e+00
1.220130e+00
1.223580e+00
1.219700e+00
1.131290e+00
1.150180e+00
1.165270e+00
1.176550e+00
1.184020e+00
1.039350e+00
1.057230e+00
1.076250e+00
1.096420e+00
1.117730e+00
1.199270e+00
1.149420e+00
1.082610e+00
9.988450e-01
8.981190e-01
1.224790e+00
1.172100e+00
1.108860e+00
1.035080e+00
9.507540e-01
1.219700e+00
1.167210e+00
1.109170e+00
1.045590e+00
9.764740e-01
1.184020e+00
1.134750e+00
1.083540e+00
1.030380e+00
9.752780e-01
1.117730e+00
1.074730e+00
1.031980e+00
9.894530e-01
9.471670e-01
8.981190e-01
7.848600e-01
6.794170e-01
5.817930e-01
4.919850e-01
9.507540e-01
8.501620e-01
7.514530e-01
6.546270e-01
5.596840e-01
9.764740e-01
8.889780e-01
7.985120e-01
7.050760e-01
6.086700e-01
9.752780e-01
9.013070e-01
8.205940e-01
7.331400e-01
6.389450e-01
9.471670e-01
8.871490e-01
8.176990e-01
7.388190e-01
6.505080e-01
4.919850e-01
4.166980e-01
3.587840e-01
3.182430e-01
2.950770e-01
5.596840e-01
4.830690e-01
4.203490e-01
3.715230e-01
3.365910e-01
6.086700e-01
5.341070e-01
4.695680e-01
4.150530e-01
3.705620e-01
6.389450e-01
5.698120e-01
5.064410e-01
4.488320e-01
3.969870e-01
6.505080e-01
5.901820e-01
5.309660e-01
4.728620e-01
4.158680e-01
2.950770e-01
2.834840e-01
2.710290e-01
2.577140e-01
2.435380e-01
3.365910e-01
3.147920e-01
2.941760e-01
2.747430e-01
2.564930e-01
3.705620e-01
3.397020e-01
3.118780e-01
2.870920e-01
2.653410e-01
3.969870e-01
3.582120e-01
3.241370e-01
2.947610e-01
2.700840e-01
4.158680e-01
3.703240e-01
3.309520e-01
2.977500e-01
2.707200e-01
2.435380e-01
2.292310e-01
2.157130e-01
2.029820e-01
1.910390e-01
2.564930e-01
2.394300e-01
2.236310e-01
2.090940e-01
1.958200e-01
2.653410e-01
2.461950e-01
2.286780e-01
2.127900e-01
1.985310e-01
2.700840e-01
2.495260e-01
2.308550e-01
2.140700e-01
1.991710e-01
2.707200e-01
2.494240e-01
2.301620e-01
2.129340e-01
1.977400e-01
1.910390e-01
1.824310e-01
1.738810e-01
1.653890e-01
1.569540e-01
1.958200e-01
1.861340e-01
1.767970e-01
1.678110e-01
1.591750e-01
1.985310e-01
1.880000e-01
1.780790e-01
1.687700e-01
1.600720e-01
1.991710e-01
1.880280e-01
1.777260e-01
1.682660e-01
1.596470e-01
1.977400e-01
1.862190e-01
1.757390e-01
1.662980e-01
1.578990e-01
1.569540e-01
1.491390e-01
1.422790e-01
1.363740e-01
1.314250e-01
1.591750e-01
1.511510e-01
1.441740e-01
1.382440e-01
1.333590e-01
1.600720e-01
1.519570e-01
1.449550e-01
1.390650e-01
1.342880e-01
1.596470e-01
1.515560e-01
1.446200e-01
1.388390e-01
1.342130e-01
1.578990e-01
1.499480e-01
1.431700e-01
1.375660e-01
1.331340e-01
8.939170e-02
9.283980e-02
9.600850e-02
9.889760e-02
1.015070e-01
8.740010e-02
9.061040e-02
9.355080e-02
9.622130e-02
9.862200e-02
8.530680e-02
8.827580e-02
9.099490e-02
9.346420e-02
9.568370e-02
8.311190e-02
8.583610e-02
8.834090e-02
9.062640e-02
9.269240e-02
8.081530e-02
8.329130e-02
8.558880e-02
8.770770e-02
8.964810e-02
1.015070e-01
1.040640e-01
1.065690e-01
1.090230e-01
1.114260e-01
9.862200e-02
1.009360e-01