<?xml version="1.0"?>
<VTKFile type="UnstructuredGrid" version="0.1" byte_order="LittleEndian" compressor="vtkZLibDataCompressor">
<UnstructuredGrid>
<Piece NumberOfPoints="10000" NumberOfCells="6400">
<Points>
<DataArray type="Float32" NumberOfComponents="3" format="ascii">
-3.360000e+00 0.000000e+00 0.000000e+00
-3.276000e+00 0.000000e+00 0.000000e+00
-3.192000e+00 0.000000e+00 0.000000e+00
-3.108000e+00 0.000000e+00 0.000000e+00
-3.024000e+00 0.000000e+00 0.000000e+00
-3.360000e+00 6.412500e-02 0.000000e+00
-3.276000e+00 6.412500e-02 0.000000e+00
-3.192000e+00 6.412500e-02 0.000000e+00
-3.108000e+00 6.412500e-02 0.000000e+00
-3.024000e+00 6.412500e-02 0.000000e+00
-3.360000e+00 1.282500e-01 0.000000e+00
-3.276000e+00 1.282500e-01 0.000000e+00
-3.192000e+00 1.282500e-01 0.000000e+00
-3.108000e+00 1.282500e-01 0.000000e+00
-3.024000e+00 1.282500e-01 0.000000e+00
-3.360000e+00 1.923750e-01 0.000000e+00
-3.276000e+00 1.923750e-01 0.000000e+00
-3.192000e+00 1.923750e-01 0.000000e+00
-3.108000e+00 1.923750e-01 0.000000e+00
-3.024000e+00 1.923750e-01 0.000000e+00
-3.360000e+00 2.565000e-01 0.000000e+00
-3.276000e+00 2.565000e-01 0.000000e+00
-3.192000e+00 2.565000e-01 0.000000e+00
-3.108000e+00 2.565000e-01 0.000000e+00
-3.024000e+00 2.565000e-01 0.000000e+00
-3.024000e+00 0.000000e+00 0.000000e+00
-2.940000e+00 0.000000e+00 0.000000e+00
-2.856000e+00 0.000000e+00 0.000000e+00
-2.772000e+00 0.000000e+00 0.000000e+00
-2.688000e+00 0.000000e+00 0.000000e+00
-3.024000e+00 6.412500e-02 0.000000e+00
-2.940000e+00 6.412500e-02 0.000000e+00
-2.856000e+00 6.412500e-02 0.000000e+00
-2.772000e+00 6.412500e-02 0.000000e+00
-2.688000e+00 6.412500e-02 0.000000e+00
-3.024000e+00 1.282500e-01 0.000000e+00
-2.940000e+00 1.282500e-01 0.000000e+00
-2.856000e+00 1.282500e-01 0.000000e+00
-2.772000e+00 1.282500e-01 0.000000e+00
-2.688000e+00 1.282500e-01 0.000000e+00
-3.024000e+00 1.923750e-01 0.000000e+00
-2.940000e+00 1.923750e-01 0.000000e+00
-2.856000e+00 1.923750e-01 0.000000e+00
-2.772000e+00 1.923750e-01 0.000000e+00
-2.688000e+00 1.923750e-01 0.000000e+00
-3.024000e+00 2.565000e-01 0.000000e+00
-2.940000e+00 2.565000e-01 0.000000e+00
-2.856000e+00 2.565000e-01 0.000000e+00
-2.772000e+00 2.565000e-01 0.000000e+00
-2.688000e+00 2.565000e-01 0.000000e+00
-2.688000e+00 0.000000e+00 0.000000e+00
-2.604000e+00 0.000000e+00 0.000000e+00
-2.520000e+00 0.000000e+00 0.000000e+00
-2.436000e+00 0.000000e+00 0.000000e+00
-2.352000e+00 0.000000e+00 0.000000e+00
-2.688000e+00 6.412500e-02 0.000000e+00
-2.604000e+00 6.412500e-02 0.000000e+00
-2.520000e+00 6.412500e-02 0.000000e+00
-2.436000e+00 6.412500e-02 0.000000e+00
-2.352000e+00 6.412500e-02 0.000000e+00
-2.688000e+00 1.282500e-01 0.000000e+00
-2.604000e+00 1.282500e-01 0.000000e+00
-2.520000e+00 1.282500e-01 0.000000e+00
-2.436000e+00 1.282500e-01 0.000000e+00
-2.352000e+00 1.282500e-01 0.000000e+00
-2.688000e+00 1.923750e-01 0.000000e+00
-2.604000e+00 1.923750e-01 0.000000e+00
-2.520000e+00 1.923750e-01 0.000000e+00
-2.436000e+00 1.923750e-01 0.000000e+00
-2.352000e+00 1.923750e-01 0.000000e+00
-2.688000e+00 2.565000e-01 0.000000e+00
-2.604000e+00 2.565000e-01 0.000000e+00
-2.520000e+00 2.565000e-01 0.000000e+00
-2.436000e+00 2.565000e-01 0.000000e+00
-2.352000e+00 2.565000e-01 0.000000e+00
-2.352000e+00 0.000000e+00 0.000000e+00
-2.268000e+00 0.000000e+00 0.000000e+00
-2.184000e+00 0.000000e+00 0.000000e+00
-2.100000e+00 0.000000e+00 0.000000e+00
-2.016000e+00 0.000000e+00 0.000000e+00
-2.352000e+00 6.412500e-02 0.000000e+00
-2.268000e+00 6.412500e-02 0.000000e+00
-2.184000e+00 6.412500e-02 0.000000e+00
-2.100000e+00 6.412500e-02 0.000000e+00
-2.016000e+00 6.412500e-02 0.000000e+00
-2.352000e+00 1.282500e-01 0.000000e+00
-2.268000e+00 1.282500e-01 0.000000e+00
-2.184000e+00 1.282500e-01 0.000000e+00
-2.100000e+00 1.282500e-01 0.000000e+00
-2.016000e+00 1.282500e-01 0.000000e+00
-2.352000e+00 1.923750e-01 0.000000e+00
-2.268000e+00 1.923750e-01 0.000000e+00
-2.184000e+00 1.923750e-01 0.000000e+00
-2.100000e+00 1.923750e-01 0.000000e+00
-2.016000e+00 1.923750e-01 0.000000e+00
-2.352000e+00 2.565000e-01 0.000000e+00
-2.268000e+00 2.565000e-01 0.000000e+00
-2.184000e+00 2.565000e-01 0.000000e+00
-2.100000e+00 2.565000e-01 0.000000e+00
-2.016000e+00 2.565000e-01 0.000000e+00
-2.016000e+00 0.000000e+00 0.000000e+00
-1.932000e+00 0.000000e+00 0.000000e+00
-1.848000e+00 0.000000e+00 0.000000e+00
-1.764000e+00 0.000000e+00 0.000000e+00
-1.680000e+00 0.000000e+00 0.000000e+00
-2.016000e+00 6.412500e-02 0.000000e+00
-1.932000e+00 6.412500e-02 0.000000e+00
-1.848000e+00 6.412500e-02 0.000000e+00
-1.764000e+00 6.412500e-02 0.000000e+00
-1.680000e+00 6.412500e-02 0.000000e+00
-2.016000e+00 1.282500e-01 0.000000e+00
-1.932000e+00 1.282500e-01 0.000000e+00
-1.848000e+00 1.282500e-01 0.000000e+00
-1.764000e+00 1.282500e-01 0.000000e+00
-1.680000e+00 1.282500e-01 0.000000e+00
-2.016000e+00 1.923750e-01 0.000000e+00
-1.932000e+00 1.923750e-01 0.000000e+00
-1.848000e+00 1.923750e-01 0.000000e+00
-1.764000e+00 1.923750e-01 0.000000e+00
-1.680000e+00 1.923750e-01 0.000000e+00
-2.016000e+00 2.565000e-01 0.000000e+00
-1.932000e+00 2.565000e-01 0.000000e+00
-1.848000e+00 2.565000e-01 0.000000e+00
-1.764000e+00 2.565000e-01 0.000000e+00
-1.680000e+00 2.565000e-01 0.000000e+00
-1.680000e+00 0.000000e+00 0.000000e+00
-1.596000e+00 0.000000e+00 0.000000e+00
-1.512000e+00 0.000000e+00 0.000000e+00
-1.428000e+00 0.000000e+00 0.000000e+00
-1.344000e+00 0.000000e+00 0.000000e+00
-1.680000e+00 6.412500e-02 0.000000e+00
-1.596000e+00 6.412500e-02 0.000000e+00
-1.512000e+00 6.412500e-02 0.000000e+00
-1.428000e+00 6.412500e-02 0.000000e+00
-1.344000e+00 6.412500e-02 0.000000e+00
-1.680000e+00 1.282500e-01 0.000000e+00
-1.596000e+00 1.282500e-01 0.000000e+00
-1.512000e+00 1.282500e-01 0.000000e+00
-1.428000e+00 1.282500e-01 0.000000e+00
-1.344000e+00 1.282500e-01 0.000000e+00
-1.680000e+00 1.923750e-01 0.000000e+00
-1.596000e+00 1.923750e-01 0.000000e+00
-1.512000e+00 1.923750e-01 0.000000e+00
-1.428000e+00 1.923750e-01 0.000000e+00
-1.344000e+00 1.923750e-01 0.000000e+00
-1.680000e+00 2.565000e-01 0.000000e+00
-1.596000e+00 2.565000e-01 0.000000e+00
-1.512000e+00 2.565000e-01 0.000000e+00
-1.428000e+00 2.565000e-01 0.000000e+00
-1.344000e+00 2.565000e-01 0.000000e+00
-1.344000e+00 0.000000e+00 0.000000e+00
-1.260000e+00 0.000000e+00 0.000000e+00
-1.176000e+00 0.000000e+00 0.000000e+00
-1.092000e+00 0.000000e+00 0.000000e+00
-1.008000e+00 0.000000e+00 0.000000e+00
-1.344000e+00 6.412500e-02 0.000000e+00
-1.260000e+00 6.412500e-02 0.000000e+00
-1.176000e+00 6.412500e-02 0.000000e+00
-1.092000e+00 6.412500e-02 0.000000e+00
-1.008000e+00 6.412500e-02 0.000000e+00
-1.344000e+00 1.282500e-01 0.000000e+00
-1.260000e+00 1.282500e-01 0.000000e+00
-1.176000e+00 1.282500e-01 0.000000e+00
-1.092000e+00 1.282500e-01 0.000000e+00
-1.008000e+00 1.282500e-01 0.000000e+00
-1.344000e+00 1.923750e-01 0.000000e+00
-1.260000e+00 1.923750e-01 0.000000e+00
-1.176000e+00 1.923750e-01 0.000000e+00
-1.092000e+00 1.923750e-01 0.000000e+00
-1.008000e+00 1.923750e-01 0.000000e+00
-1.344000e+00 2.565000e-01 0.000000e+00
-1.260000e+00 2.565000e-01 0.000000e+00
-1.176000e+00 2.565000e-01 0.000000e+00
-1.092000e+00 2.565000e-01 0.000000e+00
-1.008000e+00 2.565000e-01 0.000000e+00
-1.008000e+00 0.000000e+00 0.000000e+00
-9.240000e-01 0.000000e+00 0.000000e+00
-8.400000e-01 0.000000e+00 0.000000e+00
-7.560000e-01 0.000000e+00 0.000000e+00
-6.720000e-01 0.000000e+00 0.000000e+00
-1.008000e+00 6.412500e-02 0.000000e+00
-9.240000e-01 6.412500e-02 0.000000e+00
-8.400000e-01 6.412500e-02 0.000000e+00
-7.560000e-01 6.412500e-02 0.000000e+00
-6.720000e-01 6.412500e-02 0.000000e+00
-1.008000e+00 1.282500e-01 0.000000e+00
-9.240000e-01 1.282500e-01 0.000000e+00
-8.400000e-01 1.282500e-01 0.000000e+00
-7.560000e-01 1.282500e-01 0.000000e+00
-6.720000e-01 1.282500e-01 0.000000e+00
-1.008000e+00 1.923750e-01 0.000000e+00
-9.240000e-01 1.923750e-01 0.000000e+00
-8.400000e-01 1.923750e-01 0.000000e+00
-7.560000e-01 1.923750e-01 0.000000e+00
-6.720000e-01 1.923750e-01 0.000000e+00
-1.008000e+00 2.565000e-01 0.000000e+00
-9.240000e-01 2.565000e-01 0.000000e+00
-8.400000e-01 2.565000e-01 0.000000e+00
-7.560000e-01 2.565000e-01 0.000000e+00
-6.720000e-01 2.565000e-01 0.000000e+00
-6.720000e-01 0.000000e+00 0.000000e+00
-5.880000e-01 0.000000e+00 0.000000e+00
-5.040000e-01 0.000000e+00 0.000000e+00
-4.200000e-01 0.000000e+00 0.000000e+00
-3.360000e-01 0.000000e+00 0.000000e+00
-6.720000e-01 6.412500e-02 0.000000e+00
-5.880000e-01 6.412500e-02 0.000000e+00
-5.040000e-01 6.412500e-02 0.000000e+00
-4.200000e-01 6.412500e-02 0.000000e+00
-3.360000e-01 6.412500e-02 0.000000e+00
-6.720000e-01 1.282500e-01 0.000000e+00
-5.880000e-01 1.282500e-01 0.000000e+00
-5.040000e-01 1.282500e-01 0.000000e+00
-4.200000e-01 1.282500e-01 0.000000e+00
-3.360000e-01 1.282500e-01 0.000000e+00
-6.720000e-01 1.923750e-01 0.000000e+00
-5.880000e-01 1.923750e-01 0.000000e+00
-5.040000e-01 1.923750e-01 0.000000e+00
-4.200000e-01 1.923750e-01 0.000000e+00
-3.360000e-01 1.923750e-01 0.000000e+00
-6.720000e-01 2.565000e-01 0.000000e+00
-5.880000e-01 2.565000e-01 0.000000e+00
-5.040000e-01 2.565000e-01 0.000000e+00
-4.200000e-01 2.565000e-01 0.000000e+00
-3.360000e-01 2.565000e-01 0.000000e+00
-3.360000e-01 0.000000e+00 0.000000e+00
-2.520000e-01 0.000000e+00 0.000000e+00
-1.680000e-01 0.000000e+00 0.000000e+00
-8.400000e-02 0.000000e+00 0.000000e+00
-4.440890e-16 0.000000e+00 0.000000e+00
-3.360000e-01 6.412500e-02 0.000000e+00
-2.520000e-01 6.412500e-02 0.000000e+00
-1.680000e-01 6.412500e-02 0.000000e+00
-8.400000e-02 6.412500e-02 0.000000e+00
-4.440890e-16 6.412500e-02 0.000000e+00
-3.360000e-01 1.282500e-01 0.000000e+00
-2.520000e-01 1.282500e-01 0.000000e+00
-1.680000e-01 1.282500e-01 0.000000e+00
-8.400000e-02 1.282500e-01 0.000000e+00
-4.440890e-16 1.282500e-01 0.000000e+00
-3.360000e-01 1.923750e-01 0.000000e+00
-2.520000e-01 1.923750e-01 0.000000e+00
-1.680000e-01 1.923750e-01 0.000000e+00
[...]
<PointData>
<DataArray type="Float32" Name="V1" format="ascii">
0.000000e+00
0.000000e+00
0.000000e+00
0.000000e+00
0.000000e+00
6.347820e-02
5.971230e-02
5.603740e-02
5.245360e-02
4.896080e-02
1.013490e-01
9.783160e-02
9.395870e-02
8.972980e-02
8.514490e-02
1.136110e-01
1.143580e-01
1.137640e-01
1.118290e-01
1.085520e-01
1.002660e-01
1.092920e-01
1.154530e-01
1.187500e-01
1.191830e-01
0.000000e+00
0.000000e+00
0.000000e+00
0.000000e+00
0.000000e+00
4.896080e-02
4.552540e-02
4.360370e-02
4.319570e-02
4.430140e-02
8.514490e-02
8.058050e-02
7.814550e-02
7.784000e-02
7.966400e-02
1.085520e-01
1.051650e-01
1.036260e-01
1.039330e-01
1.060880e-01
1.191830e-01
1.192800e-01
1.200440e-01
1.214750e-01
1.235730e-01
0.000000e+00
0.000000e+00
0.000000e+00
0.000000e+00
0.000000e+00
4.430140e-02
4.545810e-02
4.682390e-02
4.839870e-02
5.018250e-02
7.966400e-02
8.171010e-02
8.417600e-02
8.706170e-02
9.036700e-02
1.060880e-01
1.087560e-01
1.120560e-01
1.159890e-01
1.205540e-01
1.235730e-01
1.265960e-01
1.304650e-01
1.351810e-01
1.407420e-01
0.000000e+00
0.000000e+00
0.000000e+00
0.000000e+00
0.000000e+00
5.018250e-02
5.209590e-02
5.451450e-02
5.743830e-02
6.086740e-02
9.036700e-02
9.391090e-02
9.827710e-02
1.034660e-01
1.094760e-01
1.205540e-01
1.254450e-01
1.312880e-01
1.380820e-01
1.458270e-01
1.407420e-01
1.466980e-01
1.535460e-01
1.612870e-01
1.699190e-01
0.000000e+00
0.000000e+00
0.000000e+00
0.000000e+00
0.000000e+00
6.086740e-02
6.451400e-02
6.886390e-02
7.391710e-02
7.967350e-02
1.094760e-01
1.158600e-01
1.234250e-01
1.321690e-01
1.420950e-01
1.458270e-01
1.540380e-01
1.636820e-01
1.747570e-01
1.872640e-01
1.699190e-01
1.790490e-01
1.896360e-01
2.016800e-01
2.151820e-01
0.000000e+00
0.000000e+00
0.000000e+00
0.000000e+00
0.000000e+00
7.967350e-02
8.541310e-02
9.257860e-02
1.011700e-01
1.111880e-01
1.420950e-01
1.519830e-01
1.641940e-01
1.787280e-01
1.955840e-01
1.872640e-01
1.997110e-01
2.148480e-01
2.326740e-01
2.531900e-01
2.151820e-01
2.285960e-01
2.445380e-01
2.630070e-01
2.840050e-01
0.000000e+00
0.000000e+00
0.000000e+00
0.000000e+00
0.000000e+00
1.111880e-01
1.205580e-01
1.324580e-01
1.468870e-01
1.638470e-01
1.955840e-01
2.113950e-01
2.312290e-01
2.550870e-01
2.829700e-01
2.531900e-01
2.725110e-01
2.963140e-01
3.246000e-01
3.573680e-01
2.840050e-01
3.039060e-01
3.277130e-01
3.554250e-01
3.870420e-01
0.000000e+00
0.000000e+00
0.000000e+00
0.000000e+00
0.000000e+00
1.638470e-01
1.801390e-01
1.994000e-01
2.216310e-01
2.468310e-01
2.829700e-01
3.099660e-01
3.415850e-01
3.778270e-01
4.186920e-01
3.573680e-01
3.894820e-01
4.265550e-01
4.685880e-01
5.155810e-01
3.870420e-01
4.186850e-01
4.543090e-01
4.939130e-01
5.374990e-01
0.000000e+00
0.000000e+00
0.000000e+00
0.000000e+00
0.000000e+00
2.468310e-01
2.755950e-01
3.044800e-01
3.334870e-01
3.626160e-01
4.186920e-01
4.657130e-01
5.130110e-01
5.605870e-01
6.084400e-01
5.155810e-01
5.703540e-01
6.255930e-01
6.812990e-01
7.374710e-01
5.374990e-01
5.895180e-01
6.422260e-01
6.956240e-01
7.497110e-01
0.000000e+00
0.000000e+00
0.000000e+00
0.000000e+00
0.000000e+00
3.626160e-01
4.031330e-01
4.366410e-01
4.631410e-01
4.826310e-01
6.084400e-01
6.750020e-01
7.315130e-01
7.779750e-01
8.143860e-01
7.374710e-01
8.156060e-01
8.846170e-01
9.445030e-01
9.952650e-01
7.497110e-01
8.249470e-01
8.959520e-01
9.627250e-01
1.025270e+00
0.000000e+00
0.000000e+00
0.000000e+00
0.000000e+00
0.000000e+00
4.826310e-01
5.022710e-01
5.114990e-01
5.103150e-01
4.987190e-01
8.143860e-01
8.520500e-01
8.741550e-01
8.807000e-01
8.716860e-01
9.952650e-01
1.049340e+00
1.087970e+00
1.111150e+00
1.118900e+00
1.025270e+00
1.094130e+00
1.152940e+00
1.201680e+00
1.240360e+00
0.000000e+00
0.000000e+00
0.000000e+00
0.000000e+00
0.000000e+00
4.987190e-01
4.594560e-01
4.152730e-01
3.661680e-01
3.121440e-01
8.716860e-01
8.187410e-01
7.560860e-01
6.837200e-01
6.016440e-01
1.118900e+00
1.077850e+00
1.022440e+00
9.526550e-01
8.685020e-01
1.240360e+00
1.236800e+00
1.214330e+00
1.172970e+00
1.112720e+00
0.000000e+00
0.000000e+00
0.000000e+00
0.000000e+00
0.000000e+00
3.121440e-01
2.548980e-01
2.047180e-01
1.616050e-01
1.255580e-01
6.016440e-01
5.079200e-01
4.231980e-01
3.474790e-01
2.807640e-01
8.685020e-01
7.590650e-01
6.554390e-01
5.576230e-01
4.656170e-01
1.112720e+00
1.008330e+00
9.014410e-01
7.920350e-01
6.801180e-01
0.000000e+00
0.000000e+00
0.000000e+00
0.000000e+00
0.000000e+00
1.255580e-01
9.562970e-02
7.637210e-02
6.778520e-02
6.986900e-02
2.807640e-01
2.250590e-01
1.867890e-01
1.659540e-01
1.625530e-01
4.656170e-01
3.882880e-01
3.312510e-01
2.945060e-01
2.780530e-01
6.801180e-01
5.853160e-01
5.097570e-01
4.534410e-01
4.163680e-01
0.000000e+00
0.000000e+00
0.000000e+00
0.000000e+00
0.000000e+00
6.986900e-02
7.078150e-02
7.243030e-02
7.481510e-02
7.793610e-02
1.625530e-01
1.590350e-01
1.571010e-01
1.567500e-01
1.579830e-01
2.780530e-01
2.647610e-01
2.540120e-01
2.458050e-01
2.401410e-01
4.163680e-01
3.879600e-01
3.631630e-01
3.419800e-01
3.244090e-01
0.000000e+00
0.000000e+00
0.000000e+00
0.000000e+00
0.000000e+00
7.793610e-02
8.073560e-02
8.143000e-02
8.001910e-02
7.650300e-02
1.579830e-01
1.592730e-01
1.575080e-01
1.526880e-01
1.448130e-01
2.401410e-01
2.356120e-01
2.282340e-01
2.180070e-01
2.049310e-01
3.244090e-01
3.097530e-01
2.936090e-01
2.759760e-01
2.568550e-01
0.000000e+00
0.000000e+00
0.000000e+00
0.000000e+00
0.000000e+00
7.650300e-02
7.508980e-02
7.292060e-02
6.999530e-02
6.631400e-02
1.448130e-01
1.405280e-01
1.353040e-01
1.291440e-01
1.220460e-01
2.049310e-01
1.963130e-01
1.871510e-01
1.774450e-01
1.671950e-01
2.568550e-01
2.424470e-01
2.284620e-01
2.149000e-01
2.017620e-01
0.000000e+00
0.000000e+00
0.000000e+00
0.000000e+00
0.000000e+00
6.631400e-02
6.369800e-02
6.097580e-02
5.814760e-02
5.521320e-02
1.220460e-01
1.166440e-01
1.112120e-01
1.057480e-01
1.002520e-01
1.671950e-01
1.588390e-01
1.507080e-01
1.428000e-01
1.351160e-01
2.017620e-01
1.902830e-01
1.794640e-01
1.693050e-01
1.598060e-01
0.000000e+00
0.000000e+00
0.000000e+00
0.000000e+00
0.000000e+00
5.521320e-02
5.277250e-02
5.034350e-02
4.792620e-02
4.552060e-02
1.002520e-01
9.558630e-02
9.102150e-02
8.655760e-02
8.219460e-02
1.351160e-01
1.284410e-01
1.220340e-01
1.158940e-01
1.100220e-01
1.598060e-01
1.513380e-01
1.433810e-01
1.359360e-01
1.290030e-01
0.000000e+00
0.000000e+00
0.000000e+00
0.000000e+00
0.000000e+00
4.552060e-02
4.380200e-02
4.148850e-02
3.858000e-02
3.507650e-02
8.219460e-02
7.874390e-02
7.463760e-02
6.987580e-02
6.445830e-02
1.100220e-01
1.048260e-01
9.944740e-02
9.388720e-02
8.814520e-02
1.290030e-01
1.220470e-01
1.159180e-01
1.106140e-01
1.061370e-01
1.002660e-01
1.092920e-01
1.154530e-01
1.187500e-01
1.191830e-01
9.945850e-02
1.074470e-01
1.136820e-01
1.181640e-01
1.208930e-01
9.848610e-02
1.053470e-01
1.112990e-01
1.163430e-01
1.204800e-01
9.734850e-02
1.029910e-01
1.083050e-01
1.132890e-01
1.179430e-01
9.604590e-02
1.003810e-01
1.046990e-01
1.090000e-01
1.132820e-01
1.191830e-01
1.192800e-01
1.200440e-01
1.214750e-01
1.235730e-01
1.208930e-01
1.227630e-01
1.248800e-01
1.272450e-01
1.298570e-01
1.204800e-01
1.236020e-01
1.266890e-01
1.297410e-01
1.327580e-01
1.179430e-01
1.217970e-01
1.254710e-01
1.289640e-01
1.322760e-01
1.132820e-01
1.173480e-01
1.212250e-01
1.249130e-01
1.284110e-01
1.235730e-01
1.265960e-01
1.304650e-01
1.351810e-01
1.407420e-01
1.298570e-01
1.331190e-01
1.372080e-01
1.421230e-01
1.478640e-01
1.327580e-01
1.362270e-01
1.404680e-01
1.454810e-01
1.512670e-01
1.322760e-01
1.359180e-01
1.402440e-01
1.452550e-01
1.509500e-01
1.284110e-01
1.321930e-01
1.365380e-01
1.414450e-01
1.469150e-01
1.407420e-01
1.466980e-01
1.535460e-01
1.612870e-01
1.699190e-01
1.478640e-01
1.540510e-01
1.611050e-01
1.690260e-01
1.778140e-01
1.512670e-01
1.575220e-01
1.646100e-01
1.725330e-01
1.812890e-01
1.509500e-01
1.571110e-01
1.640630e-01
1.718070e-01
1.803430e-01
1.469150e-01
1.528180e-01
1.594630e-01
1.668490e-01
1.749770e-01
1.699190e-01
1.790490e-01
1.896360e-01
2.016800e-01
2.151820e-01
1.778140e-01
1.870220e-01
1.976460e-01
2.096880e-01
2.231470e-01
1.812890e-01
1.904130e-01
2.008930e-01
2.127280e-01
2.259190e-01
1.803430e-01
1.892230e-01
1.993750e-01
2.107990e-01
2.234950e-01
1.749770e-01
1.834520e-01
1.930930e-01
2.039020e-01
2.158770e-01
2.151820e-01
2.285960e-01
2.445380e-01
2.630070e-01
2.840050e-01
2.231470e-01
2.364020e-01
2.521530e-01
2.704020e-01
2.911470e-01
2.259190e-01
2.388590e-01
2.542210e-01
2.720030e-01
2.922050e-01
2.234950e-01
2.359680e-01
2.507400e-01
2.678100e-01
2.871790e-01
2.158770e-01
2.277290e-01
2.417110e-01
2.578250e-01
2.760700e-01
2.840050e-01
3.039060e-01
3.277130e-01
3.554250e-01
3.870420e-01
2.911470e-01
3.102680e-01
3.335370e-01
3.609530e-01
3.925180e-01
2.922050e-01
3.104000e-01
3.329130e-01
3.597430e-01
3.908900e-01
2.871790e-01
3.043030e-01
3.258410e-01
3.517930e-01
3.821580e-01
2.760700e-01
2.919770e-01
3.123220e-01
3.371040e-01
3.663230e-01
3.870420e-01
4.186850e-01
4.543090e-01
4.939130e-01
5.374990e-01
3.925180e-01
4.226910e-01
4.576650e-01
4.974400e-01
5.420160e-01
3.908900e-01
4.193250e-01
4.532770e-01
4.927430e-01
5.377260e-01
3.821580e-01
4.085870e-01
4.411420e-01
4.798220e-01
5.246280e-01
3.663230e-01
3.904770e-01
4.212620e-01
4.586780e-01
5.027250e-01
5.374990e-01
5.895180e-01
6.422260e-01
6.956240e-01
7.497110e-01
5.420160e-01
5.942160e-01
6.481230e-01
7.037360e-01
7.610560e-01
5.377260e-01
5.895380e-01
6.438740e-01
7.007320e-01
7.601130e-01
5.246280e-01
5.754850e-01
6.294790e-01
6.866110e-01
7.468800e-01
5.027250e-01
5.520560e-01
6.049390e-01
6.613730e-01
7.213570e-01
7.497110e-01
8.249470e-01
8.959520e-01
9.627250e-01
1.025270e+00
7.610560e-01
8.419630e-01
9.183130e-01
9.901070e-01
1.057340e+00
7.601130e-01
8.466240e-01
9.288720e-01
1.006860e+00
1.080580e+00
7.468800e-01
8.389310e-01
9.276280e-01
1.012970e+00
1.094960e+00
7.213570e-01
8.188840e-01
9.145830e-01
1.008450e+00
1.100500e+00
1.025270e+00
1.094130e+00
1.152940e+00
1.201680e+00
1.240360e+00
1.057340e+00
1.139970e+00
1.210720e+00
1.269600e+00
1.316590e+00
1.080580e+00
1.177310e+00
1.260280e+00
1.329490e+00
1.384950e+00
1.094960e+00
1.206130e+00
1.301600e+00
1.381380e+00
1.445450e+00
1.100500e+00
1.226440e+00
1.334690e+00
1.425240e+00
1.498090e+00
1.240360e+00
1.236800e+00
1.214330e+00
1.172970e+00
1.112720e+00
1.316590e+00
1.313740e+00
1.297570e+00
1.268080e+00
1.225260e+00
1.384950e+00
1.381920e+00
1.368270e+00
1.344010e+00
1.309130e+00
1.445450e+00
1.441320e+00
1.426420e+00
1.400760e+00
1.364340e+00
1.498090e+00
1.491940e+00
1.472020e+00
1.438340e+00
1.390890e+00
1.112720e+00
1.008330e+00
9.014410e-01
7.920350e-01
6.801180e-01
1.225260e+00
1.141870e+00
1.050790e+00
9.520140e-01
8.455500e-01
1.309130e+00
1.236380e+00
1.154740e+00
1.064220e+00
9.648120e-01
1.364340e+00
1.291870e+00
1.213310e+00
1.128650e+00
1.037910e+00
1.390890e+00
1.308350e+00
1.226490e+00
1.145320e+00
1.064830e+00
6.801180e-01
5.853160e-01
5.097570e-01
4.534410e-01
4.163680e-01
8.455500e-01
7.438320e-01
6.573460e-01
5.860890e-01
5.300630e-01
9.648120e-01
8.617950e-01
7.693990e-01
6.876240e-01
6.164710e-01
1.037910e+00
9.392030e-01
8.459170e-01
7.580470e-01
6.755930e-01
1.064830e+00
9.760580e-01
8.869000e-01
7.973570e-01
7.074290e-01
4.163680e-01
3.879600e-01
3.631630e-01
3.419800e-01
3.244090e-01
5.300630e-01
4.863600e-01
4.471030e-01
4.122920e-01
3.819280e-01
6.164710e-01
5.604490e-01
5.094200e-01
4.633810e-01
4.223330e-01
6.755930e-01
6.102290e-01
5.501130e-01
4.952450e-01
4.456250e-01
7.074290e-01
6.356980e-01
5.691830e-01
5.078850e-01
4.518040e-01
3.244090e-01
3.097530e-01
2.936090e-01
2.759760e-01
2.568550e-01
3.819280e-01
3.576210e-01
3.334370e-01
3.093730e-01
2.854320e-01
4.223330e-01
3.901610e-01
3.595800e-01
3.305890e-01
3.031900e-01
4.456250e-01
4.073730e-01
3.720390e-01
3.396250e-01
3.101290e-01
4.518040e-01
4.092560e-01
3.708140e-01
3.364790e-01
3.062500e-01
2.568550e-01
2.424470e-01
2.284620e-01
2.149000e-01
2.017620e-01
2.854320e-01
2.674280e-01
2.503710e-01
2.342610e-01
2.190990e-01
3.031900e-01
2.827130e-01
2.635890e-01
2.458170e-01
2.293980e-01
3.101290e-01
2.883020e-01
2.681140e-01
2.495660e-01
2.326580e-01
3.062500e-01
2.841950e-01
2.639480e-01
2.455100e-01
2.288790e-01
2.017620e-01
1.902830e-01
1.794640e-01
1.693050e-01
1.598060e-01
2.190990e-01
2.057580e-01
1.933610e-01
1.819070e-01
1.713960e-01
2.293980e-01
2.147780e-01
2.013360e-01
1.890730e-01
1.779880e-01
2.326580e-01
2.173420e-01
2.033910e-01
1.908040e-01
1.795810e-01
2.288790e-01
2.134510e-01
1.995250e-01
1.871000e-01
1.761760e-01
1.598060e-01
1.513380e-01
1.433810e-01
1.359360e-01
1.290030e-01
1.713960e-01
1.621040e-01
1.534010e-01
1.452870e-01
1.377620e-01
1.779880e-01
1.682330e-01
1.591220e-01
1.506560e-01
1.428330e-01
1.795810e-01
1.697240e-01
1.605440e-01
1.520420e-01
1.442170e-01
1.761760e-01
1.665770e-01
1.576670e-01
1.494450e-01
1.419120e-01
1.290030e-01
1.220470e-01
1.159180e-01
1.106140e-01
1.061370e-01
1.377620e-01
1.305000e-01
1.240890e-01
1.185300e-01
1.138230e-01
1.428330e-01
1.354710e-01
1.289500e-01
1.232720e-01
1.184360e-01
1.442170e-01
1.369600e-01
1.305010e-01
1.248390e-01
1.199750e-01
1.419120e-01
1.349690e-01
1.287430e-01
1.232330e-01
1.184400e-01
9.604590e-02
1.003810e-01
1.046990e-01
1.090000e-01
1.132820e-01
9.458900e-02
9.850330e-02
1.024420e-01
1.064050e-01
1.103920e-01
9.299440e-02
9.661650e-02
1.002610e-01
1.039280e-01
1.076180e-01
9.126190e-02
9.472130e-02
9.815730e-02
1.015700e-01
1.049590e-01
8.939170e-02
9.281750e-02
9.613010e-02
9.932950e-02
1.024160e-01
1.132820e-01
1.173480e-01
1.212250e-01
1.249130e-01
1.284110e-01
1.103920e-01
1.143190e-01
1.181540e-01
1.218980e-01
1.255500e-01
1.076180e-01
1.113670e-01
1.151120e-01
1.188520e-01
1.225870e-01
1.049590e-01
1.084930e-01
1.120980e-01
1.157740e-01
1.195210e-01
1.024160e-01
1.056970e-01
1.091130e-01
1.126650e-01
1.163520e-01
1.284110e-01
1.321930e-01
1.365380e-01
1.414450e-01
1.469150e-01
1.255500e-01
1.294280e-01
1.337960e-01
1.386560e-01
1.440070e-01
1.225870e-01
1.265090e-01
1.308570e-01
1.356320e-01
1.408330e-01
1.195210e-01
1.234370e-01
1.277210e-01
1.323730e-01
1.373940e-01
1.163520e-01
1.202100e-01
1.243860e-01
1.288790e-01
1.336890e-01
1.469150e-01
1.528180e-01
1.594630e-01
1.668490e-01
1.749770e-01
1.440070e-01
1.497330e-01
1.561630e-01
1.632970e-01
1.711330e-01
1.408330e-01
1.463540e-01
1.525360e-01
1.593800e-01
1.668840e-01
1.373940e-01
1.426800e-01
1.485810e-01
1.550980e-01
1.622300e-01
1.336890e-01
1.387120e-01
1.443000e-01
1.504520e-01
1.571700e-01
1.749770e-01
1.834520e-01
1.930930e-01
2.039020e-01
2.158770e-01
1.711330e-01
1.792740e-01
1.885140e-01
1.988520e-01
2.102890e-01
1.668840e-01
1.746350e-01
1.834140e-01
1.932240e-01
2.040630e-01
1.622300e-01
1.695330e-01
1.777950e-01
1.870170e-01
1.971980e-01
1.571700e-01
1.639690e-01
1.716560e-01
1.802310e-01
1.896950e-01
2.158770e-01
2.277290e-01
2.417110e-01
2.578250e-01
2.760700e-01
2.102890e-01
2.215890e-01
2.348930e-01
2.501990e-01
2.675080e-01
2.040630e-01
2.146870e-01
2.272000e-01
2.416020e-01
2.578940e-01
1.971980e-01
2.070210e-01
2.186330e-01
2.320350e-01
2.472260e-01
1.896950e-01
1.985920e-01
2.091930e-01
2.214980e-01
2.355060e-01
2.760700e-01
2.919770e-01
3.123220e-01
3.371040e-01
3.663230e-01
2.675080e-01
2.822050e-01
3.014310e-01
3.251860e-01
3.534710e-01
2.578940e-01
2.712220e-01
2.891430e-01
3.116560e-01
3.387620e-01
2.472260e-01
2.590280e-01
2.754570e-01
2.965130e-01
3.221960e-01
2.355060e-01
2.456250e-01
2.603750e-01
2.797580e-01
3.037730e-01
3.663230e-01
3.904770e-01
4.212620e-01
4.586780e-01
5.027250e-01
3.534710e-01
3.747790e-01
4.036330e-01
4.400340e-01
4.839810e-01
3.387620e-01
3.564530e-01
3.829390e-01
4.182200e-01
4.622960e-01
3.221960e-01
3.355000e-01
3.591800e-01
3.932370e-01
4.376690e-01
3.037730e-01
3.119190e-01
3.323560e-01
3.650830e-01
4.100990e-01
5.027250e-01
5.520560e-01
6.049390e-01
6.613730e-01
7.213570e-01
4.839810e-01
5.320650e-01
5.829080e-01
6.365100e-01
6.928720e-01
4.622960e-01
5.058470e-01
5.526310e-01
6.026470e-01
6.558960e-01
4.376690e-01
4.734030e-01
5.141080e-01
5.597840e-01
6.104300e-01
4.100990e-01
4.347330e-01
4.673400e-01
5.079200e-01
5.564740e-01
7.213570e-01
8.188840e-01
9.145830e-01
1.008450e+00
1.100500e+00
6.928720e-01
8.062290e-01
9.109820e-01
1.007130e+00
1.094670e+00
6.558960e-01
7.788050e-01
8.837410e-01
9.707050e-01
1.039700e+00
6.104300e-01
7.366100e-01
8.328590e-01
8.991770e-01
9.355640e-01
5.564740e-01
6.796450e-01
7.583360e-01
7.925470e-01
7.822790e-01
1.100500e+00
1.226440e+00
1.334690e+00
1.425240e+00
1.498090e+00
1.094670e+00
1.214530e+00
1.319540e+00
1.409710e+00
1.485040e+00
1.039700e+00
1.152560e+00
1.253830e+00
1.343510e+00
1.421590e+00
9.355640e-01
1.040550e+00
1.137570e+00
1.226630e+00
1.307730e+00
7.822790e-01
8.784870e-01
9.707540e-01
1.059080e+00
1.143460e+00
1.498090e+00
1.491940e+00
1.472020e+00
1.438340e+00
1.390890e+00
1.485040e+00
1.486740e+00
1.477360e+00
1.456920e+00
1.425400e+00
1.421590e+00
1.421960e+00
1.418120e+00
1.410080e+00
1.397840e+00
1.307730e+00
1.297600e+00
1.294300e+00
1.297830e+00
1.308210e+00
1.143460e+00
1.113650e+00
1.105880e+00
1.120170e+00
1.156510e+00
1.390890e+00
1.308350e+00
1.226490e+00
1.145320e+00
1.064830e+00
1.425400e+00
1.327060e+00
1.230430e+00
1.135490e+00
1.042250e+00
1.397840e+00
1.298410e+00
1.198840e+00
1.099140e+00
9.993010e-01
1.308210e+00
1.222380e+00
1.131730e+00
1.036260e+00
9.359760e-01
1.156510e+00
1.098970e+00
1.029080e+00
9.468520e-01
8.522760e-01
1.064830e+00
9.760580e-01
8.869000e-01
7.973570e-01
7.074290e-01
1.042250e+00
9.596300e-01
8.744970e-01
7.868560e-01
6.967060e-01
9.993010e-01
9.226360e-01
8.419680e-01
7.572990e-01
6.686280e-01
9.359760e-01
8.650770e-01
7.893130e-01
7.086860e-01
6.231930e-01
8.522760e-01
7.869520e-01
7.165320e-01
6.410160e-01
5.604030e-01
7.074290e-01
6.356980e-01
5.691830e-01
5.078850e-01
4.518040e-01
6.967060e-01
6.252740e-01
5.587880e-01
4.972500e-01
4.406590e-01
6.686280e-01
6.013580e-01
5.382360e-01
4.792620e-01
4.244360e-01
6.231930e-01
5.639510e-01
5.075270e-01
4.539220e-01
4.031350e-01
5.604030e-01
5.130530e-01
4.666610e-01
4.212290e-01
3.767550e-01
4.518040e-01
4.092560e-01
3.708140e-01
3.364790e-01
3.062500e-01
4.406590e-01
3.982110e-01
3.601140e-01
3.263690e-01
2.969760e-01
4.244360e-01
3.834570e-01
3.467650e-01
3.143590e-01
2.862410e-01
4.031350e-01
3.649950e-01
3.307670e-01
3.004490e-01
2.740430e-01
3.767550e-01
3.428250e-01
3.121190e-01
2.846390e-01
2.603830e-01
3.062500e-01
2.841950e-01
2.639480e-01
2.455100e-01
2.288790e-01
2.969760e-01
2.761550e-01
2.569830e-01
2.394590e-01
2.235840e-01
2.862410e-01
2.669760e-01
2.491240e-01
2.326830e-01
2.176540e-01
2.740430e-01
2.566580e-01
2.403710e-01
2.251810e-01
2.110890e-01
2.603830e-01
2.452000e-01
2.307240e-01
2.169540e-01
2.038900e-01
2.288790e-01
2.134510e-01
1.995250e-01
1.871000e-01
1.761760e-01
2.235840e-01
2.084410e-01
1.948540e-01
1.828220e-01
1.723470e-01
2.176540e-01
2.029020e-01
1.897430e-01
1.781760e-01
1.682020e-01
2.110890e-01
1.968350e-01
1.841920e-01
1.731610e-01
1.637430e-01
2.038900e-01
1.902390e-01
1.782020e-01
1.677780e-01
1.589670e-01
1.761760e-01
1.665770e-01
1.576670e-01
1.494450e-01
1.419120e-01
1.723470e-01
1.632210e-01
1.547210e-01
1.468480e-01
1.396000e-01
1.682020e-01
1.595810e-01
1.515160e-01
1.440080e-01
1.370560e-01
1.637430e-01
1.556570e-01
1.480510e-01
1.409260e-01
1.342810e-01
1.589670e-01
1.514480e-01
1.443260e-01
1.376020e-01
1.312740e-01
1.419120e-01
1.349690e-01
1.287430e-01
1.232330e-01
1.184400e-01
1.396000e-01
1.329120e-01
1.269240e-01
1.216350e-01
1.170460e-01
1.370560e-01
1.306230e-01
1.248770e-01
1.198190e-01
1.154490e-01
1.342810e-01
1.281010e-01
1.226020e-01
1.177850e-01
1.136480e-01
1.312740e-01
1.253470e-01
1.201000e-01
1.155320e-01
1.116450e-01
8.939170e-02
9.281750e-02
9.613010e-02
9.932950e-02
1.024160e-01
8.740010e-02
9.061880e-02
9.374700e-02
9.678450e-02
9.973140e-02
8.530680e-02
8.831380e-02
9.125700e-02
9.413630e-02
9.695180e-02
8.311190e-02
8.590250e-02
8.866030e-02
9.138510e-02
9.407700e-02
8.081530e-02
8.338490e-02
8.595670e-02
8.853070e-02
9.110690e-02
1.024160e-01
1.056970e-01
1.091130e-01
1.126650e-01
1.163520e-01
9.973140e-02
1.028230e-01
1.060780e-01