<?xml version="1.0"?>
<VTKFile type="UnstructuredGrid" version="0.1" byte_order="LittleEndian" compressor="vtkZLibDataCompressor">
<UnstructuredGrid>
<Piece NumberOfPoints="10000" NumberOfCells="6400">
<Points>
<DataArray type="Float32" NumberOfComponents="3" format="ascii">
-3.360000e+00 0.000000e+00 0.000000e+00
-3.276000e+00 0.000000e+00 0.000000e+00
-3.192000e+00 0.000000e+00 0.000000e+00
-3.108000e+00 0.000000e+00 0.000000e+00
-3.024000e+00 0.000000e+00 0.000000e+00
-3.360000e+00 6.412500e-02 0.000000e+00
-3.276000e+00 6.412500e-02 0.000000e+00
-3.192000e+00 6.412500e-02 0.000000e+00
-3.108000e+00 6.412500e-02 0.000000e+00
-3.024000e+00 6.412500e-02 0.000000e+00
-3.360000e+00 1.282500e-01 0.000000e+00
-3.276000e+00 1.282500e-01 0.000000e+00
-3.192000e+00 1.282500e-01 0.000000e+00
-3.108000e+00 1.282500e-01 0.000000e+00
-3.024000e+00 1.282500e-01 0.000000e+00
-3.360000e+00 1.923750e-01 0.000000e+00
-3.276000e+00 1.923750e-01 0.000000e+00
-3.192000e+00 1.923750e-01 0.000000e+00
-3.108000e+00 1.923750e-01 0.000000e+00
-3.024000e+00 1.923750e-01 0.000000e+00
-3.360000e+00 2.565000e-01 0.000000e+00
-3.276000e+00 2.565000e-01 0.000000e+00
-3.192000e+00 2.565000e-01 0.000000e+00
-3.108000e+00 2.565000e-01 0.000000e+00
-3.024000e+00 2.565000e-01 0.000000e+00
-3.024000e+00 0.000000e+00 0.000000e+00
-2.940000e+00 0.000000e+00 0.000000e+00
-2.856000e+00 0.000000e+00 0.000000e+00
-2.772000e+00 0.000000e+00 0.000000e+00
-2.688000e+00 0.000000e+00 0.000000e+00
-3.024000e+00 6.412500e-02 0.000000e+00
-2.940000e+00 6.412500e-02 0.000000e+00
-2.856000e+00 6.412500e-02 0.000000e+00
-2.772000e+00 6.412500e-02 0.000000e+00
-2.688000e+00 6.412500e-02 0.000000e+00
-3.024000e+00 1.282500e-01 0.000000e+00
-2.940000e+00 1.282500e-01 0.000000e+00
-2.856000e+00 1.282500e-01 0.000000e+00
-2.772000e+00 1.282500e-01 0.000000e+00
-2.688000e+00 1.282500e-01 0.000000e+00
-3.024000e+00 1.923750e-01 0.000000e+00
-2.940000e+00 1.923750e-01 0.000000e+00
-2.856000e+00 1.923750e-01 0.000000e+00
-2.772000e+00 1.923750e-01 0.000000e+00
-2.688000e+00 1.923750e-01 0.000000e+00
-3.024000e+00 2.565000e-01 0.000000e+00
-2.940000e+00 2.565000e-01 0.000000e+00
-2.856000e+00 2.565000e-01 0.000000e+00
-2.772000e+00 2.565000e-01 0.000000e+00
-2.688000e+00 2.565000e-01 0.000000e+00
-2.688000e+00 0.000000e+00 0.000000e+00
-2.604000e+00 0.000000e+00 0.000000e+00
-2.520000e+00 0.000000e+00 0.000000e+00
-2.436000e+00 0.000000e+00 0.000000e+00
-2.352000e+00 0.000000e+00 0.000000e+00
-2.688000e+00 6.412500e-02 0.000000e+00
-2.604000e+00 6.412500e-02 0.000000e+00
-2.520000e+00 6.412500e-02 0.000000e+00
-2.436000e+00 6.412500e-02 0.000000e+00
-2.352000e+00 6.412500e-02 0.000000e+00
-2.688000e+00 1.282500e-01 0.000000e+00
-2.604000e+00 1.282500e-01 0.000000e+00
-2.520000e+00 1.282500e-01 0.000000e+00
-2.436000e+00 1.282500e-01 0.000000e+00
-2.352000e+00 1.282500e-01 0.000000e+00
-2.688000e+00 1.923750e-01 0.000000e+00
-2.604000e+00 1.923750e-01 0.000000e+00
-2.520000e+00 1.923750e-01 0.000000e+00
-2.436000e+00 1.923750e-01 0.000000e+00
-2.352000e+00 1.923750e-01 0.000000e+00
-2.688000e+00 2.565000e-01 0.000000e+00
-2.604000e+00 2.565000e-01 0.000000e+00
-2.520000e+00 2.565000e-01 0.000000e+00
-2.436000e+00 2.565000e-01 0.000000e+00
-2.352000e+00 2.565000e-01 0.000000e+00
-2.352000e+00 0.000000e+00 0.000000e+00
-2.268000e+00 0.000000e+00 0.000000e+00
-2.184000e+00 0.000000e+00 0.000000e+00
-2.100000e+00 0.000000e+00 0.000000e+00
-2.016000e+00 0.000000e+00 0.000000e+00
-2.352000e+00 6.412500e-02 0.000000e+00
-2.268000e+00 6.412500e-02 0.000000e+00
-2.184000e+00 6.412500e-02 0.000000e+00
-2.100000e+00 6.412500e-02 0.000000e+00
-2.016000e+00 6.412500e-02 0.000000e+00
-2.352000e+00 1.282500e-01 0.000000e+00
-2.268000e+00 1.282500e-01 0.000000e+00
-2.184000e+00 1.282500e-01 0.000000e+00
-2.100000e+00 1.282500e-01 0.000000e+00
-2.016000e+00 1.282500e-01 0.000000e+00
-2.352000e+00 1.923750e-01 0.000000e+00
-2.268000e+00 1.923750e-01 0.000000e+00
-2.184000e+00 1.923750e-01 0.000000e+00
-2.100000e+00 1.923750e-01 0.000000e+00
-2.016000e+00 1.923750e-01 0.000000e+00
-2.352000e+00 2.565000e-01 0.000000e+00
-2.268000e+00 2.565000e-01 0.000000e+00
-2.184000e+00 2.565000e-01 0.000000e+00
-2.100000e+00 2.565000e-01 0.000000e+00
-2.016000e+00 2.565000e-01 0.000000e+00
-2.016000e+00 0.000000e+00 0.000000e+00
-1.932000e+00 0.000000e+00 0.000000e+00
-1.848000e+00 0.000000e+00 0.000000e+00
-1.764000e+00 0.000000e+00 0.000000e+00
-1.680000e+00 0.000000e+00 0.000000e+00
-2.016000e+00 6.412500e-02 0.000000e+00
-1.932000e+00 6.412500e-02 0.000000e+00
-1.848000e+00 6.412500e-02 0.000000e+00
-1.764000e+00 6.412500e-02 0.000000e+00
-1.680000e+00 6.412500e-02 0.000000e+00
-2.016000e+00 1.282500e-01 0.000000e+00
-1.932000e+00 1.282500e-01 0.000000e+00
-1.848000e+00 1.282500e-01 0.000000e+00
-1.764000e+00 1.282500e-01 0.000000e+00
-1.680000e+00 1.282500e-01 0.000000e+00
-2.016000e+00 1.923750e-01 0.000000e+00
-1.932000e+00 1.923750e-01 0.000000e+00
-1.848000e+00 1.923750e-01 0.000000e+00
-1.764000e+00 1.923750e-01 0.000000e+00
-1.680000e+00 1.923750e-01 0.000000e+00
-2.016000e+00 2.565000e-01 0.000000e+00
-1.932000e+00 2.565000e-01 0.000000e+00
-1.848000e+00 2.565000e-01 0.000000e+00
-1.764000e+00 2.565000e-01 0.000000e+00
-1.680000e+00 2.565000e-01 0.000000e+00
-1.680000e+00 0.000000e+00 0.000000e+00
-1.596000e+00 0.000000e+00 0.000000e+00
-1.512000e+00 0.000000e+00 0.000000e+00
-1.428000e+00 0.000000e+00 0.000000e+00
-1.344000e+00 0.000000e+00 0.000000e+00
-1.680000e+00 6.412500e-02 0.000000e+00
-1.596000e+00 6.412500e-02 0.000000e+00
-1.512000e+00 6.412500e-02 0.000000e+00
-1.428000e+00 6.412500e-02 0.000000e+00
-1.344000e+00 6.412500e-02 0.000000e+00
-1.680000e+00 1.282500e-01 0.000000e+00
-1.596000e+00 1.282500e-01 0.000000e+00
-1.512000e+00 1.282500e-01 0.000000e+00
-1.428000e+00 1.282500e-01 0.000000e+00
-1.344000e+00 1.282500e-01 0.000000e+00
-1.680000e+00 1.923750e-01 0.000000e+00
-1.596000e+00 1.923750e-01 0.000000e+00
-1.512000e+00 1.923750e-01 0.000000e+00
-1.428000e+00 1.923750e-01 0.000000e+00
-1.344000e+00 1.923750e-01 0.000000e+00
-1.680000e+00 2.565000e-01 0.000000e+00
-1.596000e+00 2.565000e-01 0.000000e+00
-1.512000e+00 2.565000e-01 0.000000e+00
-1.428000e+00 2.565000e-01 0.000000e+00
-1.344000e+00 2.565000e-01 0.000000e+00
-1.344000e+00 0.000000e+00 0.000000e+00
-1.260000e+00 0.000000e+00 0.000000e+00
-1.176000e+00 0.000000e+00 0.000000e+00
-1.092000e+00 0.000000e+00 0.000000e+00
-1.008000e+00 0.000000e+00 0.000000e+00
-1.344000e+00 6.412500e-02 0.000000e+00
-1.260000e+00 6.412500e-02 0.000000e+00
-1.176000e+00 6.412500e-02 0.000000e+00
-1.092000e+00 6.412500e-02 0.000000e+00
-1.008000e+00 6.412500e-02 0.000000e+00
-1.344000e+00 1.282500e-01 0.000000e+00
-1.260000e+00 1.282500e-01 0.000000e+00
-1.176000e+00 1.282500e-01 0.000000e+00
-1.092000e+00 1.282500e-01 0.000000e+00
-1.008000e+00 1.282500e-01 0.000000e+00
-1.344000e+00 1.923750e-01 0.000000e+00
-1.260000e+00 1.923750e-01 0.000000e+00
-1.176000e+00 1.923750e-01 0.000000e+00
-1.092000e+00 1.923750e-01 0.000000e+00
-1.008000e+00 1.923750e-01 0.000000e+00
-1.344000e+00 2.565000e-01 0.000000e+00
-1.260000e+00 2.565000e-01 0.000000e+00
-1.176000e+00 2.565000e-01 0.000000e+00
-1.092000e+00 2.565000e-01 0.000000e+00
-1.008000e+00 2.565000e-01 0.000000e+00
-1.008000e+00 0.000000e+00 0.000000e+00
-9.240000e-01 0.000000e+00 0.000000e+00
-8.400000e-01 0.000000e+00 0.000000e+00
-7.560000e-01 0.000000e+00 0.000000e+00
-6.720000e-01 0.000000e+00 0.000000e+00
-1.008000e+00 6.412500e-02 0.000000e+00
-9.240000e-01 6.412500e-02 0.000000e+00
-8.400000e-01 6.412500e-02 0.000000e+00
-7.560000e-01 6.412500e-02 0.000000e+00
-6.720000e-01 6.412500e-02 0.000000e+00
-1.008000e+00 1.282500e-01 0.000000e+00
-9.240000e-01 1.282500e-01 0.000000e+00
-8.400000e-01 1.282500e-01 0.000000e+00
-7.560000e-01 1.282500e-01 0.000000e+00
-6.720000e-01 1.282500e-01 0.000000e+00
-1.008000e+00 1.923750e-01 0.000000e+00
-9.240000e-01 1.923750e-01 0.000000e+00
-8.400000e-01 1.923750e-01 0.000000e+00
-7.560000e-01 1.923750e-01 0.000000e+00
-6.720000e-01 1.923750e-01 0.000000e+00
-1.008000e+00 2.565000e-01 0.000000e+00
-9.240000e-01 2.565000e-01 0.000000e+00
-8.400000e-01 2.565000e-01 0.000000e+00
-7.560000e-01 2.565000e-01 0.000000e+00
-6.720000e-01 2.565000e-01 0.000000e+00
-6.720000e-01 0.000000e+00 0.000000e+00
-5.880000e-01 0.000000e+00 0.000000e+00
-5.040000e-01 0.000000e+00 0.000000e+00
-4.200000e-01 0.000000e+00 0.000000e+00
-3.360000e-01 0.000000e+00 0.000000e+00
-6.720000e-01 6.412500e-02 0.000000e+00
-5.880000e-01 6.412500e-02 0.000000e+00
-5.040000e-01 6.412500e-02 0.000000e+00
-4.200000e-01 6.412500e-02 0.000000e+00
-3.360000e-01 6.412500e-02 0.000000e+00
-6.720000e-01 1.282500e-01 0.000000e+00
-5.880000e-01 1.282500e-01 0.000000e+00
-5.040000e-01 1.282500e-01 0.000000e+00
-4.200000e-01 1.282500e-01 0.000000e+00
-3.360000e-01 1.282500e-01 0.000000e+00
-6.720000e-01 1.923750e-01 0.000000e+00
-5.880000e-01 1.923750e-01 0.000000e+00
-5.040000e-01 1.923750e-01 0.000000e+00
-4.200000e-01 1.923750e-01 0.000000e+00
-3.360000e-01 1.923750e-01 0.000000e+00
-6.720000e-01 2.565000e-01 0.000000e+00
-5.880000e-01 2.565000e-01 0.000000e+00
-5.040000e-01 2.565000e-01 0.000000e+00
-4.200000e-01 2.565000e-01 0.000000e+00
-3.360000e-01 2.565000e-01 0.000000e+00
-3.360000e-01 0.000000e+00 0.000000e+00
-2.520000e-01 0.000000e+00 0.000000e+00
-1.680000e-01 0.000000e+00 0.000000e+00
-8.400000e-02 0.000000e+00 0.000000e+00
-4.440890e-16 0.000000e+00 0.000000e+00
-3.360000e-01 6.412500e-02 0.000000e+00
-2.520000e-01 6.412500e-02 0.000000e+00
-1.680000e-01 6.412500e-02 0.000000e+00
-8.400000e-02 6.412500e-02 0.000000e+00
-4.440890e-16 6.412500e-02 0.000000e+00
-3.360000e-01 1.282500e-01 0.000000e+00
-2.520000e-01 1.282500e-01 0.000000e+00
-1.680000e-01 1.282500e-01 0.000000e+00
-8.400000e-02 1.282500e-01 0.000000e+00
-4.440890e-16 1.282500e-01 0.000000e+00
-3.360000e-01 1.923750e-01 0.000000e+00
-2.520000e-01 1.923750e-01 0.000000e+00
-1.680000e-01 1.923750e-01 0.000000e+00
[...]
<PointData>
<DataArray type="Float32" Name="V1" format="ascii">
0.000000e+00
0.000000e+00
0.000000e+00
0.000000e+00
0.000000e+00
6.347820e-02
5.962760e-02
5.534110e-02
5.061860e-02
4.546030e-02
1.013490e-01
9.772190e-02
9.290250e-02
8.689060e-02
7.968600e-02
1.136110e-01
1.142830e-01
1.126840e-01
1.088160e-01
1.026770e-01
1.002660e-01
1.093100e-01
1.146870e-01
1.163940e-01
1.144330e-01
0.000000e+00
0.000000e+00
0.000000e+00
0.000000e+00
0.000000e+00
4.546030e-02
3.995160e-02
3.591400e-02
3.334730e-02
3.225170e-02
7.968600e-02
7.173730e-02
6.579040e-02
6.184520e-02
5.990160e-02
1.026770e-01
9.535710e-02
8.962930e-02
8.549350e-02
8.294980e-02
1.144330e-01
1.108110e-01
1.074310e-01
1.042920e-01
1.013960e-01
0.000000e+00
0.000000e+00
0.000000e+00
0.000000e+00
0.000000e+00
3.225170e-02
3.137880e-02
3.078930e-02
3.048310e-02
3.046030e-02
5.990160e-02
5.845690e-02
5.754840e-02
5.717610e-02
5.733990e-02
8.294980e-02
8.123430e-02
8.027730e-02
8.007880e-02
8.063870e-02
1.013960e-01
9.971090e-02
9.897600e-02
9.919130e-02
1.003570e-01
0.000000e+00
0.000000e+00
0.000000e+00
0.000000e+00
0.000000e+00
3.046030e-02
3.056400e-02
3.098410e-02
3.172040e-02
3.277300e-02
5.733990e-02
5.774580e-02
5.867510e-02
6.012780e-02
6.210390e-02
8.063870e-02
8.154530e-02
8.307320e-02
8.522240e-02
8.799280e-02
1.003570e-01
1.019630e-01
1.041780e-01
1.070040e-01
1.104400e-01
0.000000e+00
0.000000e+00
0.000000e+00
0.000000e+00
0.000000e+00
3.277300e-02
3.401740e-02
3.553920e-02
3.733860e-02
3.941540e-02
6.210390e-02
6.442880e-02
6.724830e-02
7.056230e-02
7.437100e-02
8.799280e-02
9.123440e-02
9.512720e-02
9.967120e-02
1.048670e-01
1.104400e-01
1.144340e-01
1.191760e-01
1.246650e-01
1.309020e-01
0.000000e+00
0.000000e+00
0.000000e+00
0.000000e+00
0.000000e+00
3.941540e-02
4.173860e-02
4.455320e-02
4.785900e-02
5.165620e-02
7.437100e-02
7.860980e-02
8.367960e-02
8.958040e-02
9.631230e-02
1.048670e-01
1.106130e-01
1.173790e-01
1.251640e-01
1.339680e-01
1.309020e-01
1.377490e-01
1.456520e-01
1.546100e-01
1.646240e-01
0.000000e+00
0.000000e+00
0.000000e+00
0.000000e+00
0.000000e+00
5.165620e-02
5.572630e-02
6.066710e-02
6.647850e-02
7.316050e-02
9.631230e-02
1.035060e-01
1.121460e-01
1.222320e-01
1.337650e-01
1.339680e-01
1.433400e-01
1.544370e-01
1.672620e-01
1.818130e-01
1.646240e-01
1.752260e-01
1.875410e-01
2.015670e-01
2.173050e-01
0.000000e+00
0.000000e+00
0.000000e+00
0.000000e+00
0.000000e+00
7.316050e-02
7.991380e-02
8.823970e-02
9.813820e-02
1.096090e-01
1.337650e-01
1.454150e-01
1.596140e-01
1.763600e-01
1.956550e-01
1.818130e-01
1.965050e-01
2.141230e-01
2.346660e-01
2.581360e-01
2.173050e-01
2.331820e-01
2.517660e-01
2.730560e-01
2.970530e-01
0.000000e+00
0.000000e+00
0.000000e+00
0.000000e+00
0.000000e+00
1.096090e-01
1.208370e-01
1.342270e-01
1.497790e-01
1.674930e-01
1.956550e-01
2.146320e-01
2.370330e-01
2.628590e-01
2.921090e-01
2.581360e-01
2.813850e-01
3.084200e-01
3.392400e-01
3.738460e-01
2.970530e-01
3.210970e-01
3.483870e-01
3.789230e-01
4.127060e-01
0.000000e+00
0.000000e+00
0.000000e+00
0.000000e+00
0.000000e+00
1.674930e-01
1.864620e-01
2.062940e-01
2.269880e-01
2.485460e-01
2.921090e-01
3.236850e-01
3.566640e-01
3.910450e-01
4.268280e-01
3.738460e-01
4.116680e-01
4.511090e-01
4.921690e-01
5.348480e-01
4.127060e-01
4.504120e-01
4.896300e-01
5.303610e-01
5.726040e-01
0.000000e+00
0.000000e+00
0.000000e+00
0.000000e+00
0.000000e+00
2.485460e-01
2.756670e-01
2.992100e-01
3.191770e-01
3.355660e-01
4.268280e-01
4.720150e-01
5.120110e-01
5.468170e-01
5.764330e-01
5.348480e-01
5.890440e-01
6.384020e-01
6.829220e-01
7.226030e-01
5.726040e-01
6.267550e-01
6.783840e-01
7.274900e-01
7.740740e-01
0.000000e+00
0.000000e+00
0.000000e+00
0.000000e+00
0.000000e+00
3.355660e-01
3.539640e-01
3.648390e-01
3.681910e-01
3.640210e-01
5.764330e-01
6.100470e-01
6.323250e-01
6.432670e-01
6.428740e-01
7.226030e-01
7.682490e-01
8.024570e-01
8.252280e-01
8.365600e-01
7.740740e-01
8.285710e-01
8.752370e-01
9.140720e-01
9.450780e-01
0.000000e+00
0.000000e+00
0.000000e+00
0.000000e+00
0.000000e+00
3.640210e-01
3.428570e-01
3.167400e-01
2.856690e-01
2.496450e-01
6.428740e-01
6.159840e-01
5.797980e-01
5.343130e-01
4.795320e-01
8.365600e-01
8.193830e-01
7.891740e-01
7.459340e-01
6.896620e-01
9.450780e-01
9.530510e-01
9.448680e-01
9.205290e-01
8.800340e-01
0.000000e+00
0.000000e+00
0.000000e+00
0.000000e+00
0.000000e+00
2.496450e-01
2.047060e-01
1.636950e-01
1.266140e-01
9.346120e-02
4.795320e-01
4.053600e-01
3.345410e-01
2.670730e-01
2.029590e-01
6.896620e-01
6.019640e-01
5.125360e-01
4.213790e-01
3.284920e-01
8.800340e-01
7.945160e-01
6.976810e-01
5.895300e-01
4.700620e-01
0.000000e+00
0.000000e+00
0.000000e+00
0.000000e+00
0.000000e+00
9.346120e-02
7.077770e-02
4.868960e-02
2.719680e-02
6.299440e-03
2.029590e-01
1.566360e-01
1.129370e-01
7.185980e-02
3.340540e-02
3.284920e-01
2.575760e-01
1.927420e-01
1.339890e-01
8.131790e-02
4.700620e-01
3.735970e-01
2.881040e-01
2.135840e-01
1.500370e-01
0.000000e+00
0.000000e+00
0.000000e+00
0.000000e+00
0.000000e+00
6.299440e-03
-7.574060e-03
-1.528620e-02
-1.683690e-02
-1.222620e-02
3.340540e-02
7.840090e-03
-6.912900e-03
-1.085360e-02
-3.981880e-03
8.131790e-02
4.624240e-02
2.511980e-02
1.795000e-02
2.473300e-02
1.500370e-01
1.076330e-01
8.081190e-02
6.957370e-02
7.391830e-02
0.000000e+00
0.000000e+00
0.000000e+00
0.000000e+00
0.000000e+00
-1.222620e-02
-1.017720e-02
-6.437190e-03
-1.006140e-03
6.115950e-03
-3.981880e-03
-9.704210e-04
4.719450e-03
1.308770e-02
2.413440e-02
2.473300e-02
2.762040e-02
3.346990e-02
4.228160e-02
5.405550e-02
7.391830e-02
7.559520e-02
7.981420e-02
8.657550e-02
9.587900e-02
0.000000e+00
0.000000e+00
0.000000e+00
0.000000e+00
0.000000e+00
6.115950e-03
1.104190e-02
1.491330e-02
1.773030e-02
1.949280e-02
2.413440e-02
3.164880e-02
3.737750e-02
4.132050e-02
4.347800e-02
5.405550e-02
6.182070e-02
6.739250e-02
7.077070e-02
7.195540e-02
9.587900e-02
1.015580e-01
1.049580e-01
1.060810e-01
1.049250e-01
0.000000e+00
0.000000e+00
0.000000e+00
0.000000e+00
0.000000e+00
1.949280e-02
2.143580e-02
2.259900e-02
2.298260e-02
2.258650e-02
4.347800e-02
4.600600e-02
4.732720e-02
4.744190e-02
4.634980e-02
7.195540e-02
7.371060e-02
7.418470e-02
7.337780e-02
7.128980e-02
1.049250e-01
1.045500e-01
1.031710e-01
1.007900e-01
9.740660e-02
0.000000e+00
0.000000e+00
0.000000e+00
0.000000e+00
0.000000e+00
2.258650e-02
2.295100e-02
2.213520e-02
2.013920e-02
1.696290e-02
4.634980e-02
4.623530e-02
4.453640e-02
4.125300e-02
3.638510e-02
7.128980e-02
6.985300e-02
6.720360e-02
6.334140e-02
5.826650e-02
9.740660e-02
9.380400e-02
9.013660e-02
8.640430e-02
8.260710e-02
1.002660e-01
1.093100e-01
1.146870e-01
1.163940e-01
1.144330e-01
9.945850e-02
1.076900e-01
1.135910e-01
1.171620e-01
1.184010e-01
9.848610e-02
1.057270e-01
1.116730e-01
1.163250e-01
1.196810e-01
9.734850e-02
1.034200e-01
1.089320e-01
1.138830e-01
1.182740e-01
9.604590e-02
1.007710e-01
1.053680e-01
1.098370e-01
1.141790e-01
1.144330e-01
1.108110e-01
1.074310e-01
1.042920e-01
1.013960e-01
1.184010e-01
1.175340e-01
1.163190e-01
1.147570e-01
1.128470e-01
1.196810e-01
1.209060e-01
1.214040e-01
1.211740e-01
1.202160e-01
1.182740e-01
1.209290e-01
1.226860e-01
1.235440e-01
1.235050e-01
1.141790e-01
1.176010e-01
1.201640e-01
1.218680e-01
1.227130e-01
1.013960e-01
9.971090e-02
9.897600e-02
9.919130e-02
1.003570e-01
1.128470e-01
1.116600e-01
1.113490e-01
1.119150e-01
1.133570e-01
1.202160e-01
1.195960e-01
1.197350e-01
1.206340e-01
1.222920e-01
1.235050e-01
1.235200e-01
1.241350e-01
1.253490e-01
1.271630e-01
1.227130e-01
1.234310e-01
1.245470e-01
1.260600e-01
1.279700e-01
1.003570e-01
1.019630e-01
1.041780e-01
1.070040e-01
1.104400e-01
1.133570e-01
1.153250e-01
1.179050e-01
1.210960e-01
1.248980e-01
1.222920e-01
1.245160e-01
1.273360e-01
1.307510e-01
1.347620e-01
1.271630e-01
1.295350e-01
1.324700e-01
1.359700e-01
1.400330e-01
1.279700e-01
1.303820e-01
1.333090e-01
1.367510e-01
1.407090e-01
1.104400e-01
1.144340e-01
1.191760e-01
1.246650e-01
1.309020e-01
1.248980e-01
1.292340e-01
1.343250e-01
1.401710e-01
1.467710e-01
1.347620e-01
1.392770e-01
1.445320e-01
1.505260e-01
1.572590e-01
1.400330e-01
1.445630e-01
1.497950e-01
1.557300e-01
1.623670e-01
1.407090e-01
1.450910e-01
1.501160e-01
1.557840e-01
1.620950e-01
1.309020e-01
1.377490e-01
1.456520e-01
1.546100e-01
1.646240e-01
1.467710e-01
1.539590e-01
1.621780e-01
1.714280e-01
1.817090e-01
1.572590e-01
1.645460e-01
1.728230e-01
1.820890e-01
1.923460e-01
1.623670e-01
1.695100e-01
1.775860e-01
1.865940e-01
1.965350e-01
1.620950e-01
1.688520e-01
1.764680e-01
1.849430e-01
1.942770e-01
1.646240e-01
1.752260e-01
1.875410e-01
2.015670e-01
2.173050e-01
1.817090e-01
1.924570e-01
2.048640e-01
2.189290e-01
2.346530e-01
1.923460e-01
2.029690e-01
2.151810e-01
2.289840e-01
2.443770e-01
1.965350e-01
2.067610e-01
2.184940e-01
2.317330e-01
2.464780e-01
1.942770e-01
2.038360e-01
2.148010e-01
2.271750e-01
2.409550e-01
2.173050e-01
2.331820e-01
2.517660e-01
2.730560e-01
2.970530e-01
2.346530e-01
2.502340e-01
2.685160e-01
2.894990e-01
3.131830e-01
2.443770e-01
2.593890e-01
2.770940e-01
2.974920e-01
3.205830e-01
2.464780e-01
2.606480e-01
2.775010e-01
2.970360e-01
3.192540e-01
2.409550e-01
2.540110e-01
2.697360e-01
2.881300e-01
3.091940e-01
2.970530e-01
3.210970e-01
3.483870e-01
3.789230e-01
4.127060e-01
3.131830e-01
3.363760e-01
3.630630e-01
3.932460e-01
4.269230e-01
3.205830e-01
3.426310e-01
3.684420e-01
3.980150e-01
4.313510e-01
3.192540e-01
3.398640e-01
3.645240e-01
3.932330e-01
4.259900e-01
3.091940e-01
3.280740e-01
3.513090e-01
3.788970e-01
4.108400e-01
4.127060e-01
4.504120e-01
4.896300e-01
5.303610e-01
5.726040e-01
4.269230e-01
4.640040e-01
5.032330e-01
5.446090e-01
5.881320e-01
4.313510e-01
4.674910e-01
5.063530e-01
5.479370e-01
5.922430e-01
4.259900e-01
4.608720e-01
4.989900e-01
5.403440e-01
5.849360e-01
4.108400e-01
4.441460e-01
4.811430e-01
5.218320e-01
5.662110e-01
5.726040e-01
6.267550e-01
6.783840e-01
7.274900e-01
7.740740e-01
5.881320e-01
6.454040e-01
7.003620e-01
7.530090e-01
8.033440e-01
5.922430e-01
6.519890e-01
7.096210e-01
7.651400e-01
8.185450e-01
5.849360e-01
6.465110e-01
7.061600e-01
7.638820e-01
8.196780e-01
5.662110e-01
6.289690e-01
6.899780e-01
7.492360e-01
8.067440e-01
7.740740e-01
8.285710e-01
8.752370e-01
9.140720e-01
9.450780e-01
8.033440e-01
8.664650e-01
9.212990e-01
9.678450e-01
1.006100e+00
8.185450e-01
8.893990e-01
9.515730e-01
1.005070e+00
1.049880e+00
8.196780e-01
8.973730e-01
9.660610e-01
1.025740e+00
1.076420e+00
8.067440e-01
8.903870e-01
9.647610e-01
1.029870e+00
1.085700e+00
9.450780e-01
9.530510e-01
9.448680e-01
9.205290e-01
8.800340e-01
1.006100e+00
1.024770e+00
1.029300e+00
1.019690e+00
9.959390e-01
1.049880e+00
1.076990e+00
1.091590e+00
1.093680e+00
1.083250e+00
1.076420e+00
1.109710e+00
1.131730e+00
1.142490e+00
1.141970e+00
1.085700e+00
1.122930e+00
1.149730e+00
1.166120e+00
1.172090e+00
8.800340e-01
7.945160e-01
6.976810e-01
5.895300e-01
4.700620e-01
9.959390e-01
9.295540e-01
8.457570e-01
7.445470e-01
6.259240e-01
1.083250e+00
1.031450e+00
9.601100e-01
8.692220e-01
7.587890e-01
1.141970e+00
1.100210e+00
1.040740e+00
9.635560e-01
8.686560e-01
1.172090e+00
1.135830e+00
1.087650e+00
1.027550e+00
9.555270e-01
4.700620e-01
3.735970e-01
2.881040e-01
2.135840e-01
1.500370e-01
6.259240e-01
5.095910e-01
4.052580e-01
3.129230e-01
2.325870e-01
7.587890e-01
6.344370e-01
5.196830e-01
4.145250e-01
3.189650e-01
8.686560e-01
7.481350e-01
6.313800e-01
5.183910e-01
4.091700e-01
9.555270e-01
8.506830e-01
7.403480e-01
6.245210e-01
5.032030e-01
1.500370e-01
1.076330e-01
8.081190e-02
6.957370e-02
7.391830e-02
2.325870e-01
1.801940e-01
1.443260e-01
1.249810e-01
1.221620e-01
3.189650e-01
2.559370e-01
2.102890e-01
1.820220e-01
1.711350e-01
4.091700e-01
3.348600e-01
2.787020e-01
2.406940e-01
2.208380e-01
5.032030e-01
4.169650e-01
3.495640e-01
3.009990e-01
2.712700e-01
7.391830e-02
7.559520e-02
7.981420e-02
8.657550e-02
9.587900e-02
1.221620e-01
1.191270e-01
1.195770e-01
1.235100e-01
1.309270e-01
1.711350e-01
1.620330e-01
1.574800e-01
1.574780e-01
1.620240e-01
2.208380e-01
2.043120e-01
1.935250e-01
1.884780e-01
1.891700e-01
2.712700e-01
2.459650e-01
2.277120e-01
2.165120e-01
2.123650e-01
9.587900e-02
1.015580e-01
1.049580e-01
1.060810e-01
1.049250e-01
1.309270e-01
1.346670e-01
1.359180e-01
1.346820e-01
1.309580e-01
1.620240e-01
1.634850e-01
1.623880e-01
1.587320e-01
1.525190e-01
1.891700e-01
1.880130e-01
1.843670e-01
1.782320e-01
1.696090e-01
2.123650e-01
2.082500e-01
2.018560e-01
1.931820e-01
1.822280e-01
1.049250e-01
1.045500e-01
1.031710e-01
1.007900e-01
9.740660e-02
1.309580e-01
1.287050e-01
1.256250e-01
1.217190e-01
1.169860e-01
1.525190e-01
1.484130e-01
1.437210e-01
1.384440e-01
1.325810e-01
1.696090e-01
1.636730e-01
1.574580e-01
1.509640e-01
1.441910e-01
1.822280e-01
1.744860e-01
1.668370e-01
1.592810e-01
1.518170e-01
9.740660e-02
9.380400e-02
9.013660e-02
8.640430e-02
8.260710e-02
1.169860e-01
1.122480e-01
1.076860e-01
1.033000e-01
9.909040e-02
1.325810e-01
1.268650e-01
1.215430e-01
1.166160e-01
1.120830e-01
1.441910e-01
1.376540e-01
1.317080e-01
1.263510e-01
1.215850e-01
1.518170e-01
1.446160e-01
1.381790e-01
1.325060e-01
1.275970e-01
9.604590e-02
1.007710e-01
1.053680e-01
1.098370e-01
1.141790e-01
9.458900e-02
9.879040e-02
1.029130e-01
1.069560e-01
1.109200e-01
9.299440e-02
9.681660e-02
1.005470e-01
1.041860e-01
1.077330e-01
9.126190e-02
9.484920e-02
9.827080e-02
1.015270e-01
1.046170e-01
8.939170e-02
9.288810e-02
9.608370e-02
9.897850e-02
1.015720e-01
1.141790e-01
1.176010e-01
1.201640e-01
1.218680e-01
1.227130e-01
1.109200e-01
1.142870e-01
1.169990e-01
1.190570e-01
1.204600e-01
1.077330e-01
1.109240e-01
1.136530e-01
1.159200e-01
1.177240e-01
1.046170e-01
1.075130e-01
1.101270e-01
1.124570e-01
1.145040e-01
1.015720e-01
1.040540e-01
1.064200e-01
1.086690e-01
1.108020e-01
1.227130e-01
1.234310e-01
1.245470e-01
1.260600e-01
1.279700e-01
1.204600e-01
1.216800e-01
1.231800e-01
1.249610e-01
1.270230e-01
1.177240e-01
1.193360e-01
1.211400e-01
1.231350e-01
1.253210e-01
1.145040e-01
1.164010e-01
1.184260e-01
1.205800e-01
1.228630e-01
1.108020e-01
1.128730e-01
1.150380e-01
1.172970e-01
1.196500e-01
1.279700e-01
1.303820e-01
1.333090e-01
1.367510e-01
1.407090e-01
1.270230e-01
1.294940e-01
1.324330e-01
1.358390e-01
1.397120e-01
1.253210e-01
1.278370e-01
1.307730e-01
1.341310e-01
1.379090e-01
1.228630e-01
1.254090e-01
1.283300e-01
1.316270e-01
1.352990e-01
1.196500e-01
1.222120e-01
1.251040e-01
1.283280e-01
1.318820e-01
1.407090e-01
1.450910e-01
1.501160e-01
1.557840e-01
1.620950e-01
1.397120e-01
1.439720e-01
1.488310e-01
1.542910e-01
1.603510e-01
1.379090e-01
1.420340e-01
1.467160e-01
1.519550e-01
1.577510e-01
1.352990e-01
1.392780e-01
1.437700e-01
1.487750e-01
1.542930e-01
1.318820e-01
1.357030e-01
1.399930e-01
1.447510e-01
1.499790e-01
1.620950e-01
1.688520e-01
1.764680e-01
1.849430e-01
1.942770e-01
1.603510e-01
1.668000e-01
1.740650e-01
1.821460e-01
1.910430e-01
1.577510e-01
1.638770e-01
1.707730e-01
1.784390e-01
1.868740e-01
1.542930e-01
1.600820e-01
1.665910e-01
1.738210e-01
1.817710e-01
1.499790e-01
1.554150e-01
1.615190e-01
1.682920e-01
1.757330e-01
1.942770e-01
2.038360e-01
2.148010e-01
2.271750e-01
2.409550e-01
1.910430e-01
2.001110e-01
2.105260e-01
2.222870e-01
2.353940e-01
1.868740e-01
1.954180e-01
2.052390e-01
2.163360e-01
2.287100e-01
1.817710e-01
1.897570e-01
1.989410e-01
2.093230e-01
2.209030e-01
1.757330e-01
1.831270e-01
1.916320e-01
2.012470e-01
2.119710e-01
2.409550e-01
2.540110e-01
2.697360e-01
2.881300e-01
3.091940e-01
2.353940e-01
2.476460e-01
2.625730e-01
2.801760e-01
3.004540e-01
2.287100e-01
2.401030e-01
2.541270e-01
2.707840e-01
2.900730e-01
2.209030e-01
2.313810e-01
2.443980e-01
2.599550e-01
2.780510e-01
2.119710e-01
2.214810e-01
2.333870e-01
2.476890e-01
2.643870e-01
3.091940e-01
3.280740e-01
3.513090e-01
3.788970e-01
4.108400e-01
3.004540e-01
3.177170e-01
3.397860e-01
3.666630e-01
3.983470e-01
2.900730e-01
3.055180e-01
3.261540e-01
3.519820e-01
3.830020e-01
2.780510e-01
2.914770e-01
3.104120e-01
3.348540e-01
3.648030e-01
2.643870e-01
2.755960e-01
2.925600e-01
3.152780e-01
3.437520e-01
4.108400e-01
4.441460e-01
4.811430e-01
5.218320e-01
5.662110e-01
3.983470e-01
4.299200e-01
4.655310e-01
5.051780e-01
5.488620e-01
3.830020e-01
4.117280e-01
4.450170e-01
4.828670e-01
5.252800e-01
3.648030e-01
3.895690e-01
4.196010e-01
4.548990e-01
4.954630e-01
3.437520e-01
3.634440e-01
3.892850e-01
4.212750e-01
4.594140e-01
5.662110e-01
6.289690e-01
6.899780e-01
7.492360e-01
8.067440e-01
5.488620e-01
6.124710e-01
6.738160e-01
7.328960e-01
7.897130e-01
5.252800e-01
5.884480e-01
6.482090e-01
7.045610e-01
7.575050e-01
4.954630e-01
5.569020e-01
6.131580e-01
6.642310e-01
7.101210e-01
4.594140e-01
5.178320e-01
5.686620e-01
6.119050e-01
6.475610e-01
8.067440e-01
8.903870e-01
9.647610e-01
1.029870e+00
1.085700e+00
7.897130e-01
8.772620e-01
9.550210e-01
1.022990e+00
1.081170e+00
7.575050e-01
8.480280e-01
9.279920e-01
9.973950e-01
1.056240e+00
7.101210e-01
8.026870e-01
8.836730e-01
9.530770e-01
1.010900e+00
6.475610e-01
7.412380e-01
8.220640e-01
8.900380e-01
9.451610e-01
1.085700e+00
1.122930e+00
1.149730e+00
1.166120e+00
1.172090e+00
1.081170e+00
1.122240e+00
1.154450e+00
1.177800e+00
1.192310e+00
1.056240e+00
1.099680e+00
1.135870e+00
1.164810e+00
1.186510e+00
1.010900e+00
1.055250e+00
1.094000e+00
1.127140e+00
1.154670e+00
9.451610e-01
9.889580e-01
1.028830e+00
1.064780e+00
1.096810e+00
1.172090e+00
1.135830e+00
1.087650e+00
1.027550e+00
9.555270e-01
1.192310e+00
1.157050e+00
1.112780e+00
1.059500e+00
9.971950e-01
1.186510e+00
1.152950e+00
1.113340e+00
1.067660e+00
1.015920e+00
1.154670e+00
1.123530e+00
1.089320e+00
1.052040e+00
1.011700e+00
1.096810e+00
1.068780e+00
1.040730e+00
1.012640e+00
9.845290e-01
9.555270e-01
8.506830e-01
7.403480e-01
6.245210e-01
5.032030e-01
9.971950e-01
9.080220e-01
8.092760e-01
7.009570e-01
5.830650e-01
1.015920e+00
9.407940e-01
8.536740e-01
7.545570e-01
6.434440e-01
1.011700e+00
9.489980e-01
8.735390e-01
7.853200e-01
6.843400e-01
9.845290e-01
9.326340e-01
8.688730e-01
7.932460e-01
7.057530e-01
5.032030e-01
4.169650e-01
3.495640e-01
3.009990e-01
2.712700e-01
5.830650e-01
4.927590e-01
4.192450e-01
3.625230e-01
3.225940e-01
6.434440e-01
5.536810e-01
4.777050e-01
4.155150e-01
3.671120e-01
6.843400e-01
5.997310e-01
5.249430e-01
4.599740e-01
4.048260e-01
7.057530e-01
6.309100e-01
5.609590e-01
4.959010e-01
4.357360e-01
2.712700e-01
2.459650e-01
2.277120e-01
2.165120e-01
2.123650e-01
3.225940e-01
2.890540e-01
2.630170e-01
2.444850e-01
2.334560e-01
3.671120e-01
3.266170e-01
2.937610e-01
2.685430e-01
2.509640e-01
4.048260e-01
3.586560e-01
3.199430e-01
2.886860e-01
2.648870e-01
4.357360e-01
3.851700e-01
3.415630e-01
3.049150e-01
2.752250e-01
2.123650e-01
2.082500e-01
2.018560e-01
1.931820e-01
1.822280e-01
2.334560e-01
2.254640e-01
2.158190e-01
2.045220e-01
1.915720e-01
2.509640e-01
2.392930e-01
2.266560e-01
2.130510e-01
1.984790e-01
2.648870e-01
2.497390e-01
2.343670e-01
2.187700e-01
2.029490e-01
2.752250e-01
2.568010e-01
2.389520e-01
2.216790e-01
2.049820e-01
1.822280e-01
1.744860e-01
1.668370e-01
1.592810e-01
1.518170e-01
1.915720e-01
1.820220e-01
1.729950e-01
1.644890e-01
1.565050e-01
1.984790e-01
1.873880e-01
1.772070e-01
1.679360e-01
1.595750e-01
2.029490e-01
1.905830e-01
1.794740e-01
1.696220e-01
1.610250e-01
2.049820e-01
1.916080e-01
1.797960e-01
1.695460e-01
1.608570e-01
1.518170e-01
1.446160e-01
1.381790e-01
1.325060e-01
1.275970e-01
1.565050e-01
1.488690e-01
1.421290e-01
1.362860e-01
1.313400e-01
1.595750e-01
1.516430e-01
1.447110e-01
1.387800e-01
1.338500e-01
1.610250e-01
1.529370e-01
1.459250e-01
1.399880e-01
1.351260e-01
1.608570e-01
1.527530e-01
1.457700e-01
1.399090e-01
1.351690e-01
8.939170e-02
9.288810e-02
9.608370e-02
9.897850e-02
1.015720e-01
8.740010e-02
9.064960e-02
9.360080e-02
9.625360e-02
9.860800e-02
8.530680e-02
8.830690e-02
9.102280e-02
9.345440e-02
9.560170e-02
8.311190e-02
8.585990e-02
8.834950e-02
9.058080e-02
9.255370e-02
8.081530e-02
8.330860e-02
8.558110e-02
8.763280e-02
8.946370e-02
1.015720e-01
1.040540e-01
1.064200e-01
1.086690e-01
1.108020e-01
9.860800e-02
1.008180e-01