<?xml version="1.0"?>
<VTKFile type="UnstructuredGrid" version="0.1" byte_order="LittleEndian" compressor="vtkZLibDataCompressor">
<UnstructuredGrid>
<Piece NumberOfPoints="10000" NumberOfCells="6400">
<Points>
<DataArray type="Float32" NumberOfComponents="3" format="ascii">
-3.360000e+00 0.000000e+00 0.000000e+00
-3.276000e+00 0.000000e+00 0.000000e+00
-3.192000e+00 0.000000e+00 0.000000e+00
-3.108000e+00 0.000000e+00 0.000000e+00
-3.024000e+00 0.000000e+00 0.000000e+00
-3.360000e+00 6.412500e-02 0.000000e+00
-3.276000e+00 6.412500e-02 0.000000e+00
-3.192000e+00 6.412500e-02 0.000000e+00
-3.108000e+00 6.412500e-02 0.000000e+00
-3.024000e+00 6.412500e-02 0.000000e+00
-3.360000e+00 1.282500e-01 0.000000e+00
-3.276000e+00 1.282500e-01 0.000000e+00
-3.192000e+00 1.282500e-01 0.000000e+00
-3.108000e+00 1.282500e-01 0.000000e+00
-3.024000e+00 1.282500e-01 0.000000e+00
-3.360000e+00 1.923750e-01 0.000000e+00
-3.276000e+00 1.923750e-01 0.000000e+00
-3.192000e+00 1.923750e-01 0.000000e+00
-3.108000e+00 1.923750e-01 0.000000e+00
-3.024000e+00 1.923750e-01 0.000000e+00
-3.360000e+00 2.565000e-01 0.000000e+00
-3.276000e+00 2.565000e-01 0.000000e+00
-3.192000e+00 2.565000e-01 0.000000e+00
-3.108000e+00 2.565000e-01 0.000000e+00
-3.024000e+00 2.565000e-01 0.000000e+00
-3.024000e+00 0.000000e+00 0.000000e+00
-2.940000e+00 0.000000e+00 0.000000e+00
-2.856000e+00 0.000000e+00 0.000000e+00
-2.772000e+00 0.000000e+00 0.000000e+00
-2.688000e+00 0.000000e+00 0.000000e+00
-3.024000e+00 6.412500e-02 0.000000e+00
-2.940000e+00 6.412500e-02 0.000000e+00
-2.856000e+00 6.412500e-02 0.000000e+00
-2.772000e+00 6.412500e-02 0.000000e+00
-2.688000e+00 6.412500e-02 0.000000e+00
-3.024000e+00 1.282500e-01 0.000000e+00
-2.940000e+00 1.282500e-01 0.000000e+00
-2.856000e+00 1.282500e-01 0.000000e+00
-2.772000e+00 1.282500e-01 0.000000e+00
-2.688000e+00 1.282500e-01 0.000000e+00
-3.024000e+00 1.923750e-01 0.000000e+00
-2.940000e+00 1.923750e-01 0.000000e+00
-2.856000e+00 1.923750e-01 0.000000e+00
-2.772000e+00 1.923750e-01 0.000000e+00
-2.688000e+00 1.923750e-01 0.000000e+00
-3.024000e+00 2.565000e-01 0.000000e+00
-2.940000e+00 2.565000e-01 0.000000e+00
-2.856000e+00 2.565000e-01 0.000000e+00
-2.772000e+00 2.565000e-01 0.000000e+00
-2.688000e+00 2.565000e-01 0.000000e+00
-2.688000e+00 0.000000e+00 0.000000e+00
-2.604000e+00 0.000000e+00 0.000000e+00
-2.520000e+00 0.000000e+00 0.000000e+00
-2.436000e+00 0.000000e+00 0.000000e+00
-2.352000e+00 0.000000e+00 0.000000e+00
-2.688000e+00 6.412500e-02 0.000000e+00
-2.604000e+00 6.412500e-02 0.000000e+00
-2.520000e+00 6.412500e-02 0.000000e+00
-2.436000e+00 6.412500e-02 0.000000e+00
-2.352000e+00 6.412500e-02 0.000000e+00
-2.688000e+00 1.282500e-01 0.000000e+00
-2.604000e+00 1.282500e-01 0.000000e+00
-2.520000e+00 1.282500e-01 0.000000e+00
-2.436000e+00 1.282500e-01 0.000000e+00
-2.352000e+00 1.282500e-01 0.000000e+00
-2.688000e+00 1.923750e-01 0.000000e+00
-2.604000e+00 1.923750e-01 0.000000e+00
-2.520000e+00 1.923750e-01 0.000000e+00
-2.436000e+00 1.923750e-01 0.000000e+00
-2.352000e+00 1.923750e-01 0.000000e+00
-2.688000e+00 2.565000e-01 0.000000e+00
-2.604000e+00 2.565000e-01 0.000000e+00
-2.520000e+00 2.565000e-01 0.000000e+00
-2.436000e+00 2.565000e-01 0.000000e+00
-2.352000e+00 2.565000e-01 0.000000e+00
-2.352000e+00 0.000000e+00 0.000000e+00
-2.268000e+00 0.000000e+00 0.000000e+00
-2.184000e+00 0.000000e+00 0.000000e+00
-2.100000e+00 0.000000e+00 0.000000e+00
-2.016000e+00 0.000000e+00 0.000000e+00
-2.352000e+00 6.412500e-02 0.000000e+00
-2.268000e+00 6.412500e-02 0.000000e+00
-2.184000e+00 6.412500e-02 0.000000e+00
-2.100000e+00 6.412500e-02 0.000000e+00
-2.016000e+00 6.412500e-02 0.000000e+00
-2.352000e+00 1.282500e-01 0.000000e+00
-2.268000e+00 1.282500e-01 0.000000e+00
-2.184000e+00 1.282500e-01 0.000000e+00
-2.100000e+00 1.282500e-01 0.000000e+00
-2.016000e+00 1.282500e-01 0.000000e+00
-2.352000e+00 1.923750e-01 0.000000e+00
-2.268000e+00 1.923750e-01 0.000000e+00
-2.184000e+00 1.923750e-01 0.000000e+00
-2.100000e+00 1.923750e-01 0.000000e+00
-2.016000e+00 1.923750e-01 0.000000e+00
-2.352000e+00 2.565000e-01 0.000000e+00
-2.268000e+00 2.565000e-01 0.000000e+00
-2.184000e+00 2.565000e-01 0.000000e+00
-2.100000e+00 2.565000e-01 0.000000e+00
-2.016000e+00 2.565000e-01 0.000000e+00
-2.016000e+00 0.000000e+00 0.000000e+00
-1.932000e+00 0.000000e+00 0.000000e+00
-1.848000e+00 0.000000e+00 0.000000e+00
-1.764000e+00 0.000000e+00 0.000000e+00
-1.680000e+00 0.000000e+00 0.000000e+00
-2.016000e+00 6.412500e-02 0.000000e+00
-1.932000e+00 6.412500e-02 0.000000e+00
-1.848000e+00 6.412500e-02 0.000000e+00
-1.764000e+00 6.412500e-02 0.000000e+00
-1.680000e+00 6.412500e-02 0.000000e+00
-2.016000e+00 1.282500e-01 0.000000e+00
-1.932000e+00 1.282500e-01 0.000000e+00
-1.848000e+00 1.282500e-01 0.000000e+00
-1.764000e+00 1.282500e-01 0.000000e+00
-1.680000e+00 1.282500e-01 0.000000e+00
-2.016000e+00 1.923750e-01 0.000000e+00
-1.932000e+00 1.923750e-01 0.000000e+00
-1.848000e+00 1.923750e-01 0.000000e+00
-1.764000e+00 1.923750e-01 0.000000e+00
-1.680000e+00 1.923750e-01 0.000000e+00
-2.016000e+00 2.565000e-01 0.000000e+00
-1.932000e+00 2.565000e-01 0.000000e+00
-1.848000e+00 2.565000e-01 0.000000e+00
-1.764000e+00 2.565000e-01 0.000000e+00
-1.680000e+00 2.565000e-01 0.000000e+00
-1.680000e+00 0.000000e+00 0.000000e+00
-1.596000e+00 0.000000e+00 0.000000e+00
-1.512000e+00 0.000000e+00 0.000000e+00
-1.428000e+00 0.000000e+00 0.000000e+00
-1.344000e+00 0.000000e+00 0.000000e+00
-1.680000e+00 6.412500e-02 0.000000e+00
-1.596000e+00 6.412500e-02 0.000000e+00
-1.512000e+00 6.412500e-02 0.000000e+00
-1.428000e+00 6.412500e-02 0.000000e+00
-1.344000e+00 6.412500e-02 0.000000e+00
-1.680000e+00 1.282500e-01 0.000000e+00
-1.596000e+00 1.282500e-01 0.000000e+00
-1.512000e+00 1.282500e-01 0.000000e+00
-1.428000e+00 1.282500e-01 0.000000e+00
-1.344000e+00 1.282500e-01 0.000000e+00
-1.680000e+00 1.923750e-01 0.000000e+00
-1.596000e+00 1.923750e-01 0.000000e+00
-1.512000e+00 1.923750e-01 0.000000e+00
-1.428000e+00 1.923750e-01 0.000000e+00
-1.344000e+00 1.923750e-01 0.000000e+00
-1.680000e+00 2.565000e-01 0.000000e+00
-1.596000e+00 2.565000e-01 0.000000e+00
-1.512000e+00 2.565000e-01 0.000000e+00
-1.428000e+00 2.565000e-01 0.000000e+00
-1.344000e+00 2.565000e-01 0.000000e+00
-1.344000e+00 0.000000e+00 0.000000e+00
-1.260000e+00 0.000000e+00 0.000000e+00
-1.176000e+00 0.000000e+00 0.000000e+00
-1.092000e+00 0.000000e+00 0.000000e+00
-1.008000e+00 0.000000e+00 0.000000e+00
-1.344000e+00 6.412500e-02 0.000000e+00
-1.260000e+00 6.412500e-02 0.000000e+00
-1.176000e+00 6.412500e-02 0.000000e+00
-1.092000e+00 6.412500e-02 0.000000e+00
-1.008000e+00 6.412500e-02 0.000000e+00
-1.344000e+00 1.282500e-01 0.000000e+00
-1.260000e+00 1.282500e-01 0.000000e+00
-1.176000e+00 1.282500e-01 0.000000e+00
-1.092000e+00 1.282500e-01 0.000000e+00
-1.008000e+00 1.282500e-01 0.000000e+00
-1.344000e+00 1.923750e-01 0.000000e+00
-1.260000e+00 1.923750e-01 0.000000e+00
-1.176000e+00 1.923750e-01 0.000000e+00
-1.092000e+00 1.923750e-01 0.000000e+00
-1.008000e+00 1.923750e-01 0.000000e+00
-1.344000e+00 2.565000e-01 0.000000e+00
-1.260000e+00 2.565000e-01 0.000000e+00
-1.176000e+00 2.565000e-01 0.000000e+00
-1.092000e+00 2.565000e-01 0.000000e+00
-1.008000e+00 2.565000e-01 0.000000e+00
-1.008000e+00 0.000000e+00 0.000000e+00
-9.240000e-01 0.000000e+00 0.000000e+00
-8.400000e-01 0.000000e+00 0.000000e+00
-7.560000e-01 0.000000e+00 0.000000e+00
-6.720000e-01 0.000000e+00 0.000000e+00
-1.008000e+00 6.412500e-02 0.000000e+00
-9.240000e-01 6.412500e-02 0.000000e+00
-8.400000e-01 6.412500e-02 0.000000e+00
-7.560000e-01 6.412500e-02 0.000000e+00
-6.720000e-01 6.412500e-02 0.000000e+00
-1.008000e+00 1.282500e-01 0.000000e+00
-9.240000e-01 1.282500e-01 0.000000e+00
-8.400000e-01 1.282500e-01 0.000000e+00
-7.560000e-01 1.282500e-01 0.000000e+00
-6.720000e-01 1.282500e-01 0.000000e+00
-1.008000e+00 1.923750e-01 0.000000e+00
-9.240000e-01 1.923750e-01 0.000000e+00
-8.400000e-01 1.923750e-01 0.000000e+00
-7.560000e-01 1.923750e-01 0.000000e+00
-6.720000e-01 1.923750e-01 0.000000e+00
-1.008000e+00 2.565000e-01 0.000000e+00
-9.240000e-01 2.565000e-01 0.000000e+00
-8.400000e-01 2.565000e-01 0.000000e+00
-7.560000e-01 2.565000e-01 0.000000e+00
-6.720000e-01 2.565000e-01 0.000000e+00
-6.720000e-01 0.000000e+00 0.000000e+00
-5.880000e-01 0.000000e+00 0.000000e+00
-5.040000e-01 0.000000e+00 0.000000e+00
-4.200000e-01 0.000000e+00 0.000000e+00
-3.360000e-01 0.000000e+00 0.000000e+00
-6.720000e-01 6.412500e-02 0.000000e+00
-5.880000e-01 6.412500e-02 0.000000e+00
-5.040000e-01 6.412500e-02 0.000000e+00
-4.200000e-01 6.412500e-02 0.000000e+00
-3.360000e-01 6.412500e-02 0.000000e+00
-6.720000e-01 1.282500e-01 0.000000e+00
-5.880000e-01 1.282500e-01 0.000000e+00
-5.040000e-01 1.282500e-01 0.000000e+00
-4.200000e-01 1.282500e-01 0.000000e+00
-3.360000e-01 1.282500e-01 0.000000e+00
-6.720000e-01 1.923750e-01 0.000000e+00
-5.880000e-01 1.923750e-01 0.000000e+00
-5.040000e-01 1.923750e-01 0.000000e+00
-4.200000e-01 1.923750e-01 0.000000e+00
-3.360000e-01 1.923750e-01 0.000000e+00
-6.720000e-01 2.565000e-01 0.000000e+00
-5.880000e-01 2.565000e-01 0.000000e+00
-5.040000e-01 2.565000e-01 0.000000e+00
-4.200000e-01 2.565000e-01 0.000000e+00
-3.360000e-01 2.565000e-01 0.000000e+00
-3.360000e-01 0.000000e+00 0.000000e+00
-2.520000e-01 0.000000e+00 0.000000e+00
-1.680000e-01 0.000000e+00 0.000000e+00
-8.400000e-02 0.000000e+00 0.000000e+00
-4.440890e-16 0.000000e+00 0.000000e+00
-3.360000e-01 6.412500e-02 0.000000e+00
-2.520000e-01 6.412500e-02 0.000000e+00
-1.680000e-01 6.412500e-02 0.000000e+00
-8.400000e-02 6.412500e-02 0.000000e+00
-4.440890e-16 6.412500e-02 0.000000e+00
-3.360000e-01 1.282500e-01 0.000000e+00
-2.520000e-01 1.282500e-01 0.000000e+00
-1.680000e-01 1.282500e-01 0.000000e+00
-8.400000e-02 1.282500e-01 0.000000e+00
-4.440890e-16 1.282500e-01 0.000000e+00
-3.360000e-01 1.923750e-01 0.000000e+00
-2.520000e-01 1.923750e-01 0.000000e+00
-1.680000e-01 1.923750e-01 0.000000e+00
[...]
<PointData>
<DataArray type="Float32" Name="V1" format="ascii">
0.000000e+00
0.000000e+00
0.000000e+00
0.000000e+00
0.000000e+00
6.347820e-02
6.032350e-02
5.777370e-02
5.582870e-02
5.448870e-02
1.013490e-01
9.868360e-02
9.646170e-02
9.468270e-02
9.334680e-02
1.136110e-01
1.150800e-01
1.160640e-01
1.165620e-01
1.165740e-01
1.002660e-01
1.095140e-01
1.165800e-01
1.214660e-01
1.241720e-01
0.000000e+00
0.000000e+00
0.000000e+00
0.000000e+00
0.000000e+00
5.448870e-02
5.303620e-02
5.285110e-02
5.393360e-02
5.628340e-02
9.334680e-02
9.189370e-02
9.223350e-02
9.436630e-02
9.829200e-02
1.165740e-01
1.165720e-01
1.181470e-01
1.212980e-01
1.260260e-01
1.241720e-01
1.270730e-01
1.305920e-01
1.347290e-01
1.394850e-01
0.000000e+00
0.000000e+00
0.000000e+00
0.000000e+00
0.000000e+00
5.628340e-02
5.864200e-02
6.127850e-02
6.419280e-02
6.738500e-02
9.829200e-02
1.023270e-01
1.068800e-01
1.119520e-01
1.175420e-01
1.260260e-01
1.310550e-01
1.368050e-01
1.432770e-01
1.504710e-01
1.394850e-01
1.448250e-01
1.510530e-01
1.581690e-01
1.661720e-01
0.000000e+00
0.000000e+00
0.000000e+00
0.000000e+00
0.000000e+00
6.738500e-02
7.069720e-02
7.468400e-02
7.934560e-02
8.468200e-02
1.175420e-01
1.233580e-01
1.302630e-01
1.382580e-01
1.473430e-01
1.504710e-01
1.579820e-01
1.667380e-01
1.767380e-01
1.879840e-01
1.661720e-01
1.745690e-01
1.841070e-01
1.947860e-01
2.066050e-01
0.000000e+00
0.000000e+00
0.000000e+00
0.000000e+00
0.000000e+00
8.468200e-02
9.004840e-02
9.652030e-02
1.040970e-01
1.127800e-01
1.473430e-01
1.564870e-01
1.674430e-01
1.802100e-01
1.947900e-01
1.879840e-01
1.993160e-01
2.127680e-01
2.283390e-01
2.460290e-01
2.066050e-01
2.185360e-01
2.324950e-01
2.484820e-01
2.664980e-01
0.000000e+00
0.000000e+00
0.000000e+00
0.000000e+00
0.000000e+00
1.127800e-01
1.209120e-01
1.311880e-01
1.436090e-01
1.581750e-01
1.947900e-01
2.084650e-01
2.255800e-01
2.461370e-01
2.701340e-01
2.460290e-01
2.626590e-01
2.831770e-01
3.075830e-01
3.358770e-01
2.664980e-01
2.834950e-01
3.039780e-01
3.279480e-01
3.554040e-01
0.000000e+00
0.000000e+00
0.000000e+00
0.000000e+00
0.000000e+00
1.581750e-01
1.714530e-01
1.879450e-01
2.076490e-01
2.305670e-01
2.701340e-01
2.921040e-01
3.191200e-01
3.511820e-01
3.882890e-01
3.358770e-01
3.619530e-01
3.935260e-01
4.305980e-01
4.731670e-01
3.554040e-01
3.809990e-01
4.111630e-01
4.458970e-01
4.852000e-01
0.000000e+00
0.000000e+00
0.000000e+00
0.000000e+00
0.000000e+00
2.305670e-01
2.542970e-01
2.801440e-01
3.081070e-01
3.381860e-01
3.882890e-01
4.270800e-01
4.691160e-01
5.143980e-01
5.629270e-01
4.731670e-01
5.183480e-01
5.669170e-01
6.188750e-01
6.742220e-01
4.852000e-01
5.281010e-01
5.735460e-01
6.215360e-01
6.720710e-01
0.000000e+00
0.000000e+00
0.000000e+00
0.000000e+00
0.000000e+00
3.381860e-01
3.777250e-01
4.138900e-01
4.466800e-01
4.760970e-01
5.629270e-01
6.268890e-01
6.860820e-01
7.405050e-01
7.901580e-01
6.742220e-01
7.474920e-01
8.165760e-01
8.814730e-01
9.421840e-01
6.720710e-01
7.395340e-01
8.053720e-01
8.695860e-01
9.321750e-01
0.000000e+00
0.000000e+00
0.000000e+00
0.000000e+00
0.000000e+00
4.760970e-01
5.178380e-01
5.498040e-01
5.719950e-01
5.844120e-01
7.901580e-01
8.598070e-01
9.153940e-01
9.569190e-01
9.843820e-01
9.421840e-01
1.025910e+00
1.096770e+00
1.154770e+00
1.199910e+00
9.321750e-01
1.016140e+00
1.093930e+00
1.165550e+00
1.231000e+00
0.000000e+00
0.000000e+00
0.000000e+00
0.000000e+00
0.000000e+00
5.844120e-01
5.816010e-01
5.699060e-01
5.493240e-01
5.198570e-01
9.843820e-01
9.888850e-01
9.796410e-01
9.566500e-01
9.199130e-01
1.199910e+00
1.221850e+00
1.229210e+00
1.221980e+00
1.200170e+00
1.231000e+00
1.280500e+00
1.318600e+00
1.345310e+00
1.360620e+00
0.000000e+00
0.000000e+00
0.000000e+00
0.000000e+00
0.000000e+00
5.198570e-01
4.596450e-01
4.043060e-01
3.538380e-01
3.082430e-01
9.199130e-01
8.322950e-01
7.490520e-01
6.701820e-01
5.956870e-01
1.200170e+00
1.117950e+00
1.034240e+00
9.490330e-01
8.623320e-01
1.360620e+00
1.316610e+00
1.259870e+00
1.190390e+00
1.108180e+00
0.000000e+00
0.000000e+00
0.000000e+00
0.000000e+00
0.000000e+00
3.082430e-01
2.667520e-01
2.348840e-01
2.126400e-01
2.000190e-01
5.956870e-01
5.239380e-01
4.660180e-01
4.219270e-01
3.916640e-01
8.623320e-01
7.715580e-01
6.934020e-01
6.278610e-01
5.749370e-01
1.108180e+00
1.009610e+00
9.170350e-01
8.304430e-01
7.498360e-01
0.000000e+00
0.000000e+00
0.000000e+00
0.000000e+00
0.000000e+00
2.000190e-01
1.883630e-01
1.775700e-01
1.676400e-01
1.585730e-01
3.916640e-01
3.649790e-01
3.402760e-01
3.175560e-01
2.968180e-01
5.749370e-01
5.298490e-01
4.881190e-01
4.497480e-01
4.147350e-01
7.498360e-01
6.829720e-01
6.210990e-01
5.642160e-01
5.123240e-01
0.000000e+00
0.000000e+00
0.000000e+00
0.000000e+00
0.000000e+00
1.585730e-01
1.531810e-01
1.463550e-01
1.380960e-01
1.284030e-01
2.968180e-01
2.832060e-01
2.679760e-01
2.511270e-01
2.326600e-01
4.147350e-01
3.900750e-01
3.648610e-01
3.390930e-01
3.127700e-01
5.123240e-01
4.737880e-01
4.370110e-01
4.019930e-01
3.687340e-01
0.000000e+00
0.000000e+00
0.000000e+00
0.000000e+00
0.000000e+00
1.284030e-01
1.219170e-01
1.152140e-01
1.082930e-01
1.011550e-01
2.326600e-01
2.194020e-01
2.062200e-01
1.931150e-01
1.800850e-01
3.127700e-01
2.924550e-01
2.730200e-01
2.544650e-01
2.367910e-01
3.687340e-01
3.410750e-01
3.156120e-01
2.923440e-01
2.712720e-01
0.000000e+00
0.000000e+00
0.000000e+00
0.000000e+00
0.000000e+00
1.011550e-01
9.536590e-02
8.981830e-02
8.451230e-02
7.944800e-02
1.800850e-01
1.693120e-01
1.590890e-01
1.494170e-01
1.402940e-01
2.367910e-01
2.218390e-01
2.078130e-01
1.947130e-01
1.825390e-01
2.712720e-01
2.529470e-01
2.359900e-01
2.204020e-01
2.061810e-01
0.000000e+00
0.000000e+00
0.000000e+00
0.000000e+00
0.000000e+00
7.944800e-02
7.510670e-02
7.096780e-02
6.703130e-02
6.329720e-02
1.402940e-01
1.324110e-01
1.249460e-01
1.178990e-01
1.112700e-01
1.825390e-01
1.719120e-01
1.619340e-01
1.526030e-01
1.439190e-01
2.061810e-01
1.936110e-01
1.819320e-01
1.711420e-01
1.612440e-01
0.000000e+00
0.000000e+00
0.000000e+00
0.000000e+00
0.000000e+00
6.329720e-02
5.997990e-02
5.679820e-02
5.375210e-02
5.084140e-02
1.112700e-01
1.053390e-01
9.969370e-02
9.433300e-02
8.925720e-02
1.439190e-01
1.360790e-01
1.286860e-01
1.217430e-01
1.152470e-01
1.612440e-01
1.521970e-01
1.437760e-01
1.359810e-01
1.288120e-01
0.000000e+00
0.000000e+00
0.000000e+00
0.000000e+00
0.000000e+00
5.084140e-02
4.852840e-02
4.575720e-02
4.252780e-02
3.884020e-02
8.925720e-02
8.495900e-02
8.020370e-02
7.499150e-02
6.932230e-02
1.152470e-01
1.092920e-01
1.033400e-01
9.739120e-02
9.144630e-02
1.288120e-01
1.215270e-01
1.151650e-01
1.097270e-01
1.052120e-01
1.002660e-01
1.095140e-01
1.165800e-01
1.214660e-01
1.241720e-01
9.945850e-02
1.072020e-01
1.136580e-01
1.188260e-01
1.227070e-01
9.848610e-02
1.048810e-01
1.106590e-01
1.158200e-01
1.203650e-01
9.734850e-02
1.025500e-01
1.075830e-01
1.124490e-01
1.171480e-01
9.604590e-02
1.002100e-01
1.044320e-01
1.087130e-01
1.130540e-01
1.241720e-01
1.270730e-01
1.305920e-01
1.347290e-01
1.394850e-01
1.227070e-01
1.264440e-01
1.305710e-01
1.350880e-01
1.399940e-01
1.203650e-01
1.246680e-01
1.291980e-01
1.339550e-01
1.389390e-01
1.171480e-01
1.217450e-01
1.264730e-01
1.313320e-01
1.363200e-01
1.130540e-01
1.176760e-01
1.223970e-01
1.272170e-01
1.321370e-01
1.394850e-01
1.448250e-01
1.510530e-01
1.581690e-01
1.661720e-01
1.399940e-01
1.453090e-01
1.514920e-01
1.585420e-01
1.664600e-01
1.389390e-01
1.442280e-01
1.503400e-01
1.572760e-01
1.650350e-01
1.363200e-01
1.415820e-01
1.475990e-01
1.543710e-01
1.618970e-01
1.321370e-01
1.373720e-01
1.432690e-01
1.498260e-01
1.570450e-01
1.661720e-01
1.745690e-01
1.841070e-01
1.947860e-01
2.066050e-01
1.664600e-01
1.747650e-01
1.841820e-01
1.947140e-01
2.063580e-01
1.650350e-01
1.731660e-01
1.823730e-01
1.926580e-01
2.040200e-01
1.618970e-01
1.697720e-01
1.786790e-01
1.886180e-01
1.995890e-01
1.570450e-01
1.645840e-01
1.731010e-01
1.825950e-01
1.930670e-01
2.066050e-01
2.185360e-01
2.324950e-01
2.484820e-01
2.664980e-01
2.063580e-01
2.180110e-01
2.316740e-01
2.473450e-01
2.650250e-01
2.040200e-01
2.153340e-01
2.286020e-01
2.438250e-01
2.610030e-01
1.995890e-01
2.105030e-01
2.232810e-01
2.379240e-01
2.544320e-01
1.930670e-01
2.035180e-01
2.157090e-01
2.296410e-01
2.453130e-01
2.664980e-01
2.834950e-01
3.039780e-01
3.279480e-01
3.554040e-01
2.650250e-01
2.813250e-01
3.012870e-01
3.249110e-01
3.521980e-01
2.610030e-01
2.765790e-01
2.958920e-01
3.189430e-01
3.457310e-01
2.544320e-01
2.692570e-01
2.877940e-01
3.100420e-01
3.360030e-01
2.453130e-01
2.593600e-01
2.769920e-01
2.982100e-01
3.230130e-01
3.554040e-01
3.809990e-01
4.111630e-01
4.458970e-01
4.852000e-01
3.521980e-01
3.765340e-01
4.060750e-01
4.408220e-01
4.807740e-01
3.457310e-01
3.686210e-01
3.972590e-01
4.316460e-01
4.717810e-01
3.360030e-01
3.572600e-01
3.847150e-01
4.183690e-01
4.582200e-01
3.230130e-01
3.424510e-01
3.684440e-01
4.009910e-01
4.400930e-01
4.852000e-01
5.281010e-01
5.735460e-01
6.215360e-01
6.720710e-01
4.807740e-01
5.228250e-01
5.683250e-01
6.172760e-01
6.696760e-01
4.717810e-01
5.122220e-01
5.571480e-01
6.065580e-01
6.604520e-01
4.582200e-01
4.962930e-01
5.400140e-01
5.893830e-01
6.444010e-01
4.400930e-01
4.750370e-01
5.169230e-01
5.657520e-01
6.215220e-01
6.720710e-01
7.395340e-01
8.053720e-01
8.695860e-01
9.321750e-01
6.696760e-01
7.423420e-01
8.126900e-01
8.807200e-01
9.464310e-01
6.604520e-01
7.363260e-01
8.098760e-01
8.811010e-01
9.500020e-01
6.444010e-01
7.214860e-01
7.969290e-01
8.707300e-01
9.428880e-01
6.215220e-01
6.978210e-01
7.738490e-01
8.496050e-01
9.250890e-01
9.321750e-01
1.016140e+00
1.093930e+00
1.165550e+00
1.231000e+00
9.464310e-01
1.039830e+00
1.125820e+00
1.204390e+00
1.275550e+00
9.500020e-01
1.053870e+00
1.149380e+00
1.236530e+00
1.315330e+00
9.428880e-01
1.058250e+00
1.164610e+00
1.261970e+00
1.350340e+00
9.250890e-01
1.052970e+00
1.171520e+00
1.280720e+00
1.380580e+00
1.231000e+00
1.280500e+00
1.318600e+00
1.345310e+00
1.360620e+00
1.275550e+00
1.331090e+00
1.373940e+00
1.404090e+00
1.421550e+00
1.315330e+00
1.378030e+00
1.426190e+00
1.459790e+00
1.478840e+00
1.350340e+00
1.421320e+00
1.475340e+00
1.512410e+00
1.532510e+00
1.380580e+00
1.460960e+00
1.521410e+00
1.561940e+00
1.582530e+00
1.360620e+00
1.316610e+00
1.259870e+00
1.190390e+00
1.108180e+00
1.421550e+00
1.374860e+00
1.319840e+00
1.256510e+00
1.184860e+00
1.478840e+00
1.422040e+00
1.360570e+00
1.294440e+00
1.223650e+00
1.532510e+00
1.458150e+00
1.382040e+00
1.304180e+00
1.224550e+00
1.582530e+00
1.483210e+00
1.384270e+00
1.285720e+00
1.187560e+00
1.108180e+00
1.009610e+00
9.170350e-01
8.304430e-01
7.498360e-01
1.184860e+00
1.093890e+00
1.003150e+00
9.126480e-01
8.223820e-01
1.223650e+00
1.135120e+00
1.044110e+00
9.506020e-01
8.546110e-01
1.224550e+00
1.133320e+00
1.039900e+00
9.443060e-01
8.465230e-01
1.187560e+00
1.088480e+00
9.905460e-01
8.937580e-01
7.981190e-01
7.498360e-01
6.829720e-01
6.210990e-01
5.642160e-01
5.123240e-01
8.223820e-01
7.439260e-01
6.707290e-01
6.027920e-01
5.401150e-01
8.546110e-01
7.704310e-01
6.911570e-01
6.167870e-01
5.473230e-01
8.465230e-01
7.624890e-01
6.823810e-01
6.062010e-01
5.339480e-01
7.981190e-01
7.200980e-01
6.444030e-01
5.710330e-01
4.999880e-01
5.123240e-01
4.737880e-01
4.370110e-01
4.019930e-01
3.687340e-01
5.401150e-01
4.957880e-01
4.543270e-01
4.157330e-01
3.800050e-01
5.473230e-01
5.008450e-01
4.577410e-01
4.180110e-01
3.816570e-01
5.339480e-01
4.889580e-01
4.472510e-01
4.088280e-01
3.736890e-01
4.999880e-01
4.601280e-01
4.228600e-01
3.881840e-01
3.561010e-01
3.687340e-01
3.410750e-01
3.156120e-01
2.923440e-01
2.712720e-01
3.800050e-01
3.499260e-01
3.225690e-01
2.979330e-01
2.760180e-01
3.816570e-01
3.503620e-01
3.221870e-01
2.971320e-01
2.751970e-01
3.736890e-01
3.423830e-01
3.144680e-01
2.899430e-01
2.688090e-01
3.561010e-01
3.259880e-01
2.994100e-01
2.763650e-01
2.568550e-01
2.712720e-01
2.529470e-01
2.359900e-01
2.204020e-01
2.061810e-01
2.760180e-01
2.571480e-01
2.397080e-01
2.236990e-01
2.091190e-01
2.751970e-01
2.564240e-01
2.390590e-01
2.231020e-01
2.085530e-01
2.688090e-01
2.507750e-01
2.340430e-01
2.186120e-01
2.044820e-01
2.568550e-01
2.402020e-01
2.246600e-01
2.102280e-01
1.969070e-01
2.061810e-01
1.936110e-01
1.819320e-01
1.711420e-01
1.612440e-01
2.091190e-01
1.962980e-01
1.844020e-01
1.734290e-01
1.633800e-01
2.085530e-01
1.957900e-01
1.839580e-01
1.730560e-01
1.630830e-01
2.044820e-01
1.920870e-01
1.806010e-01
1.700230e-01
1.603540e-01
1.969070e-01
1.851880e-01
1.743290e-01
1.643300e-01
1.551910e-01
1.612440e-01
1.521970e-01
1.437760e-01
1.359810e-01
1.288120e-01
1.633800e-01
1.542310e-01
1.457200e-01
1.378480e-01
1.306130e-01
1.630830e-01
1.540080e-01
1.455760e-01
1.377870e-01
1.306430e-01
1.603540e-01
1.515270e-01
1.433430e-01
1.358010e-01
1.289010e-01
1.551910e-01
1.467900e-01
1.390220e-01
1.318880e-01
1.253880e-01
1.288120e-01
1.215270e-01
1.151650e-01
1.097270e-01
1.052120e-01
1.306130e-01
1.235400e-01
1.172910e-01
1.118650e-01
1.072620e-01
1.306430e-01
1.238460e-01
1.177690e-01
1.124090e-01
1.077690e-01
1.289010e-01
1.224440e-01
1.165980e-01
1.113610e-01
1.067340e-01
1.253880e-01
1.193350e-01
1.137780e-01
1.087190e-01
1.041570e-01
9.604590e-02
1.002100e-01
1.044320e-01
1.087130e-01
1.130540e-01
9.458900e-02
9.850820e-02
1.025310e-01
1.066580e-01
1.108900e-01
9.299440e-02
9.672430e-02
1.005680e-01
1.045250e-01
1.085950e-01
9.126190e-02
9.485810e-02
9.854140e-02
1.023120e-01
1.061690e-01
8.939170e-02
9.290950e-02
9.645230e-02
1.000200e-01
1.036130e-01
1.130540e-01
1.176760e-01
1.223970e-01
1.272170e-01
1.321370e-01
1.108900e-01
1.153780e-01
1.200050e-01
1.247700e-01
1.296720e-01
1.085950e-01
1.129160e-01
1.174090e-01
1.220740e-01
1.269100e-01
1.061690e-01
1.102900e-01
1.146100e-01
1.191300e-01
1.238500e-01
1.036130e-01
1.074980e-01
1.116070e-01
1.159390e-01
1.204940e-01
1.321370e-01
1.373720e-01
1.432690e-01
1.498260e-01
1.570450e-01
1.296720e-01
1.348580e-01
1.406440e-01
1.470310e-01
1.540190e-01
1.269100e-01
1.320000e-01
1.376330e-01
1.438080e-01
1.505260e-01
1.238500e-01
1.287990e-01
1.342350e-01
1.401570e-01
1.465660e-01
1.204940e-01
1.252560e-01
1.304510e-01
1.360790e-01
1.421390e-01
1.570450e-01
1.645840e-01
1.731010e-01
1.825950e-01
1.930670e-01
1.540190e-01
1.612870e-01
1.694720e-01
1.785750e-01
1.885950e-01
1.505260e-01
1.574800e-01
1.652890e-01
1.739520e-01
1.834690e-01
1.465660e-01
1.531640e-01
1.605500e-01
1.687250e-01
1.776880e-01
1.421390e-01
1.483380e-01
1.552570e-01
1.628950e-01
1.712540e-01
1.930670e-01
2.035180e-01
2.157090e-01
2.296410e-01
2.453130e-01
1.885950e-01
1.986020e-01
2.102130e-01
2.234260e-01
2.382420e-01
1.834690e-01
1.929490e-01
2.039020e-01
2.163290e-01
2.302300e-01
1.776880e-01
1.865570e-01
1.967780e-01
2.083520e-01
2.212790e-01
1.712540e-01
1.794270e-01
1.888400e-01
1.994930e-01
2.113880e-01
2.453130e-01
2.593600e-01
2.769920e-01
2.982100e-01
3.230130e-01
2.382420e-01
2.516190e-01
2.683110e-01
2.883170e-01
3.116380e-01
2.302300e-01
2.427650e-01
2.583760e-01
2.770630e-01
2.988270e-01
2.212790e-01
2.327980e-01
2.471880e-01
2.644480e-01
2.845800e-01
2.113880e-01
2.217170e-01
2.347450e-01
2.504720e-01
2.688970e-01
3.230130e-01
3.424510e-01
3.684440e-01
4.009910e-01
4.400930e-01
3.116380e-01
3.288710e-01
3.532540e-01
3.847890e-01
4.234740e-01
2.988270e-01
3.136690e-01
3.362280e-01
3.665060e-01
4.045030e-01
2.845800e-01
2.968450e-01
3.173660e-01
3.461440e-01
3.831780e-01
2.688970e-01
2.784000e-01
2.966680e-01
3.237020e-01
3.595020e-01
4.400930e-01
4.750370e-01
5.169230e-01
5.657520e-01
6.215220e-01
4.234740e-01
4.543310e-01
4.938150e-01
5.419280e-01
5.986680e-01
4.045030e-01
4.291620e-01
4.651590e-01
5.124940e-01
5.711660e-01
3.831780e-01
3.995300e-01
4.309530e-01
4.774490e-01
5.390180e-01
3.595020e-01
3.654350e-01
3.911990e-01
4.367950e-01
5.022230e-01
6.215220e-01
6.978210e-01
7.738490e-01
8.496050e-01
9.250890e-01
5.986680e-01
6.763590e-01
7.525650e-01
8.272850e-01
9.005210e-01
5.711660e-01
6.465780e-01
7.188540e-01
7.879940e-01
8.539980e-01
5.390180e-01
6.084800e-01
6.727170e-01
7.317300e-01
7.855200e-01
5.022230e-01
5.620630e-01
6.141530e-01
6.584950e-01
6.950880e-01
9.250890e-01
1.052970e+00
1.171520e+00
1.280720e+00
1.380580e+00
9.005210e-01
1.056050e+00
1.198700e+00
1.328470e+00
1.445360e+00
8.539980e-01
1.038240e+00
1.197810e+00
1.332710e+00
1.442930e+00
7.855200e-01
9.995400e-01
1.168840e+00
1.293420e+00
1.373280e+00
6.950880e-01
9.399460e-01
1.111790e+00
1.210620e+00
1.236430e+00
1.380580e+00
1.460960e+00
1.521410e+00
1.561940e+00
1.582530e+00
1.445360e+00
1.517400e+00
1.573360e+00
1.613240e+00
1.637040e+00
1.442930e+00
1.499990e+00
1.547450e+00
1.585310e+00
1.613570e+00
1.373280e+00
1.408750e+00
1.443700e+00
1.478150e+00
1.512100e+00
1.236430e+00
1.243660e+00
1.262100e+00
1.291770e+00
1.332650e+00
1.582530e+00
1.483210e+00
1.384270e+00
1.285720e+00
1.187560e+00
1.637040e+00
1.523210e+00
1.404400e+00
1.280640e+00
1.151910e+00
1.613570e+00
1.491410e+00
1.363340e+00
1.229370e+00
1.089480e+00
1.512100e+00
1.387820e+00
1.261090e+00
1.131910e+00
1.000270e+00
1.332650e+00
1.212440e+00
1.097650e+00
9.882670e-01
8.842960e-01
1.187560e+00
1.088480e+00
9.905460e-01
8.937580e-01
7.981190e-01
1.151910e+00
1.036500e+00
9.289980e-01
8.294000e-01
7.377060e-01
1.089480e+00
9.700810e-01
8.617300e-01
7.644210e-01
6.781540e-01
1.000270e+00
8.892250e-01
7.887410e-01
6.988200e-01
6.194620e-01
8.842960e-01
7.939300e-01
7.100310e-01
6.325980e-01
5.616320e-01
7.981190e-01
7.200980e-01
6.444030e-01
5.710330e-01
4.999880e-01
7.377060e-01
6.664180e-01
5.968130e-01
5.288880e-01
4.626460e-01
6.781540e-01
6.127060e-01
5.486770e-01
4.860670e-01
4.248770e-01
6.194620e-01
5.589600e-01
4.999960e-01
4.425700e-01
3.866810e-01
5.616320e-01
5.051820e-01
4.507700e-01
3.983960e-01
3.480600e-01
4.999880e-01
4.601280e-01
4.228600e-01
3.881840e-01
3.561010e-01
4.626460e-01
4.321540e-01
4.019500e-01
3.720320e-01
3.424020e-01
4.248770e-01
4.040070e-01
3.809120e-01
3.555910e-01
3.280450e-01
3.866810e-01
3.756860e-01
3.597450e-01
3.388600e-01
3.130310e-01
3.480600e-01
3.471900e-01
3.384500e-01
3.218400e-01
2.973590e-01
3.561010e-01
3.259880e-01
2.994100e-01
2.763650e-01
2.568550e-01
3.424020e-01
3.129840e-01
2.874100e-01
2.656790e-01
2.477910e-01
3.280450e-01
2.993340e-01
2.747940e-01
2.544250e-01
2.382270e-01
3.130310e-01
2.850370e-01
2.615610e-01
2.426030e-01
2.281620e-01
2.973590e-01
2.700940e-01
2.477110e-01
2.302120e-01
2.175960e-01
2.568550e-01
2.402020e-01
2.246600e-01
2.102280e-01
1.969070e-01
2.477910e-01
2.327000e-01
2.183660e-01
2.047890e-01
1.919710e-01
2.382270e-01
2.247050e-01
2.115940e-01
1.988960e-01
1.866100e-01
2.281620e-01
2.162170e-01
2.043460e-01
1.925480e-01
1.808230e-01
2.175960e-01
2.072370e-01
1.966200e-01
1.857450e-01
1.746110e-01
1.969070e-01
1.851880e-01
1.743290e-01
1.643300e-01
1.551910e-01
1.919710e-01
1.807420e-01
1.703490e-01
1.607930e-01
1.520730e-01
1.866100e-01
1.759020e-01
1.660040e-01
1.569160e-01
1.486380e-01
1.808230e-01
1.706680e-01
1.612930e-01
1.527000e-01
1.448870e-01
1.746110e-01
1.650390e-01
1.562170e-01
1.481440e-01
1.408210e-01
1.551910e-01
1.467900e-01
1.390220e-01
1.318880e-01
1.253880e-01
1.520730e-01
1.440370e-01
1.365970e-01
1.297520e-01
1.235020e-01
1.486380e-01
1.409910e-01
1.338960e-01
1.273520e-01
1.213610e-01
1.448870e-01
1.376510e-01
1.309190e-01
1.246900e-01
1.189640e-01
1.408210e-01
1.340180e-01
1.276650e-01
1.217640e-01
1.163130e-01
1.253880e-01
1.193350e-01
1.137780e-01
1.087190e-01
1.041570e-01
1.235020e-01
1.176820e-01
1.123340e-01
1.074570e-01
1.030510e-01
1.213610e-01
1.157770e-01
1.106440e-01
1.059640e-01
1.017350e-01
1.189640e-01
1.136180e-01
1.087100e-01
1.042390e-01
1.002070e-01
1.163130e-01
1.112060e-01
1.065300e-01
1.022840e-01
9.846850e-02
8.939170e-02
9.290950e-02
9.645230e-02
1.000200e-01
1.036130e-01
8.740010e-02
9.072350e-02
9.408930e-02
9.749740e-02
1.009480e-01
8.530680e-02
8.843560e-02
9.162350e-02
9.487030e-02
9.817600e-02
8.311190e-02
8.604590e-02
8.905480e-02
9.213860e-02
9.529720e-02
8.081530e-02
8.355440e-02
8.638340e-02
8.930230e-02
9.231120e-02
1.036130e-01
1.074980e-01
1.116070e-01
1.159390e-01
1.204940e-01
1.009480e-01
1.046320e-01
1.085430e-01