<?xml version="1.0"?>
<VTKFile type="UnstructuredGrid" version="0.1" byte_order="LittleEndian" compressor="vtkZLibDataCompressor">
<UnstructuredGrid>
<Piece NumberOfPoints="10000" NumberOfCells="6400">
<Points>
<DataArray type="Float32" NumberOfComponents="3" format="ascii">
-3.360000e+00 0.000000e+00 0.000000e+00
-3.276000e+00 0.000000e+00 0.000000e+00
-3.192000e+00 0.000000e+00 0.000000e+00
-3.108000e+00 0.000000e+00 0.000000e+00
-3.024000e+00 0.000000e+00 0.000000e+00
-3.360000e+00 6.412500e-02 0.000000e+00
-3.276000e+00 6.412500e-02 0.000000e+00
-3.192000e+00 6.412500e-02 0.000000e+00
-3.108000e+00 6.412500e-02 0.000000e+00
-3.024000e+00 6.412500e-02 0.000000e+00
-3.360000e+00 1.282500e-01 0.000000e+00
-3.276000e+00 1.282500e-01 0.000000e+00
-3.192000e+00 1.282500e-01 0.000000e+00
-3.108000e+00 1.282500e-01 0.000000e+00
-3.024000e+00 1.282500e-01 0.000000e+00
-3.360000e+00 1.923750e-01 0.000000e+00
-3.276000e+00 1.923750e-01 0.000000e+00
-3.192000e+00 1.923750e-01 0.000000e+00
-3.108000e+00 1.923750e-01 0.000000e+00
-3.024000e+00 1.923750e-01 0.000000e+00
-3.360000e+00 2.565000e-01 0.000000e+00
-3.276000e+00 2.565000e-01 0.000000e+00
-3.192000e+00 2.565000e-01 0.000000e+00
-3.108000e+00 2.565000e-01 0.000000e+00
-3.024000e+00 2.565000e-01 0.000000e+00
-3.024000e+00 0.000000e+00 0.000000e+00
-2.940000e+00 0.000000e+00 0.000000e+00
-2.856000e+00 0.000000e+00 0.000000e+00
-2.772000e+00 0.000000e+00 0.000000e+00
-2.688000e+00 0.000000e+00 0.000000e+00
-3.024000e+00 6.412500e-02 0.000000e+00
-2.940000e+00 6.412500e-02 0.000000e+00
-2.856000e+00 6.412500e-02 0.000000e+00
-2.772000e+00 6.412500e-02 0.000000e+00
-2.688000e+00 6.412500e-02 0.000000e+00
-3.024000e+00 1.282500e-01 0.000000e+00
-2.940000e+00 1.282500e-01 0.000000e+00
-2.856000e+00 1.282500e-01 0.000000e+00
-2.772000e+00 1.282500e-01 0.000000e+00
-2.688000e+00 1.282500e-01 0.000000e+00
-3.024000e+00 1.923750e-01 0.000000e+00
-2.940000e+00 1.923750e-01 0.000000e+00
-2.856000e+00 1.923750e-01 0.000000e+00
-2.772000e+00 1.923750e-01 0.000000e+00
-2.688000e+00 1.923750e-01 0.000000e+00
-3.024000e+00 2.565000e-01 0.000000e+00
-2.940000e+00 2.565000e-01 0.000000e+00
-2.856000e+00 2.565000e-01 0.000000e+00
-2.772000e+00 2.565000e-01 0.000000e+00
-2.688000e+00 2.565000e-01 0.000000e+00
-2.688000e+00 0.000000e+00 0.000000e+00
-2.604000e+00 0.000000e+00 0.000000e+00
-2.520000e+00 0.000000e+00 0.000000e+00
-2.436000e+00 0.000000e+00 0.000000e+00
-2.352000e+00 0.000000e+00 0.000000e+00
-2.688000e+00 6.412500e-02 0.000000e+00
-2.604000e+00 6.412500e-02 0.000000e+00
-2.520000e+00 6.412500e-02 0.000000e+00
-2.436000e+00 6.412500e-02 0.000000e+00
-2.352000e+00 6.412500e-02 0.000000e+00
-2.688000e+00 1.282500e-01 0.000000e+00
-2.604000e+00 1.282500e-01 0.000000e+00
-2.520000e+00 1.282500e-01 0.000000e+00
-2.436000e+00 1.282500e-01 0.000000e+00
-2.352000e+00 1.282500e-01 0.000000e+00
-2.688000e+00 1.923750e-01 0.000000e+00
-2.604000e+00 1.923750e-01 0.000000e+00
-2.520000e+00 1.923750e-01 0.000000e+00
-2.436000e+00 1.923750e-01 0.000000e+00
-2.352000e+00 1.923750e-01 0.000000e+00
-2.688000e+00 2.565000e-01 0.000000e+00
-2.604000e+00 2.565000e-01 0.000000e+00
-2.520000e+00 2.565000e-01 0.000000e+00
-2.436000e+00 2.565000e-01 0.000000e+00
-2.352000e+00 2.565000e-01 0.000000e+00
-2.352000e+00 0.000000e+00 0.000000e+00
-2.268000e+00 0.000000e+00 0.000000e+00
-2.184000e+00 0.000000e+00 0.000000e+00
-2.100000e+00 0.000000e+00 0.000000e+00
-2.016000e+00 0.000000e+00 0.000000e+00
-2.352000e+00 6.412500e-02 0.000000e+00
-2.268000e+00 6.412500e-02 0.000000e+00
-2.184000e+00 6.412500e-02 0.000000e+00
-2.100000e+00 6.412500e-02 0.000000e+00
-2.016000e+00 6.412500e-02 0.000000e+00
-2.352000e+00 1.282500e-01 0.000000e+00
-2.268000e+00 1.282500e-01 0.000000e+00
-2.184000e+00 1.282500e-01 0.000000e+00
-2.100000e+00 1.282500e-01 0.000000e+00
-2.016000e+00 1.282500e-01 0.000000e+00
-2.352000e+00 1.923750e-01 0.000000e+00
-2.268000e+00 1.923750e-01 0.000000e+00
-2.184000e+00 1.923750e-01 0.000000e+00
-2.100000e+00 1.923750e-01 0.000000e+00
-2.016000e+00 1.923750e-01 0.000000e+00
-2.352000e+00 2.565000e-01 0.000000e+00
-2.268000e+00 2.565000e-01 0.000000e+00
-2.184000e+00 2.565000e-01 0.000000e+00
-2.100000e+00 2.565000e-01 0.000000e+00
-2.016000e+00 2.565000e-01 0.000000e+00
-2.016000e+00 0.000000e+00 0.000000e+00
-1.932000e+00 0.000000e+00 0.000000e+00
-1.848000e+00 0.000000e+00 0.000000e+00
-1.764000e+00 0.000000e+00 0.000000e+00
-1.680000e+00 0.000000e+00 0.000000e+00
-2.016000e+00 6.412500e-02 0.000000e+00
-1.932000e+00 6.412500e-02 0.000000e+00
-1.848000e+00 6.412500e-02 0.000000e+00
-1.764000e+00 6.412500e-02 0.000000e+00
-1.680000e+00 6.412500e-02 0.000000e+00
-2.016000e+00 1.282500e-01 0.000000e+00
-1.932000e+00 1.282500e-01 0.000000e+00
-1.848000e+00 1.282500e-01 0.000000e+00
-1.764000e+00 1.282500e-01 0.000000e+00
-1.680000e+00 1.282500e-01 0.000000e+00
-2.016000e+00 1.923750e-01 0.000000e+00
-1.932000e+00 1.923750e-01 0.000000e+00
-1.848000e+00 1.923750e-01 0.000000e+00
-1.764000e+00 1.923750e-01 0.000000e+00
-1.680000e+00 1.923750e-01 0.000000e+00
-2.016000e+00 2.565000e-01 0.000000e+00
-1.932000e+00 2.565000e-01 0.000000e+00
-1.848000e+00 2.565000e-01 0.000000e+00
-1.764000e+00 2.565000e-01 0.000000e+00
-1.680000e+00 2.565000e-01 0.000000e+00
-1.680000e+00 0.000000e+00 0.000000e+00
-1.596000e+00 0.000000e+00 0.000000e+00
-1.512000e+00 0.000000e+00 0.000000e+00
-1.428000e+00 0.000000e+00 0.000000e+00
-1.344000e+00 0.000000e+00 0.000000e+00
-1.680000e+00 6.412500e-02 0.000000e+00
-1.596000e+00 6.412500e-02 0.000000e+00
-1.512000e+00 6.412500e-02 0.000000e+00
-1.428000e+00 6.412500e-02 0.000000e+00
-1.344000e+00 6.412500e-02 0.000000e+00
-1.680000e+00 1.282500e-01 0.000000e+00
-1.596000e+00 1.282500e-01 0.000000e+00
-1.512000e+00 1.282500e-01 0.000000e+00
-1.428000e+00 1.282500e-01 0.000000e+00
-1.344000e+00 1.282500e-01 0.000000e+00
-1.680000e+00 1.923750e-01 0.000000e+00
-1.596000e+00 1.923750e-01 0.000000e+00
-1.512000e+00 1.923750e-01 0.000000e+00
-1.428000e+00 1.923750e-01 0.000000e+00
-1.344000e+00 1.923750e-01 0.000000e+00
-1.680000e+00 2.565000e-01 0.000000e+00
-1.596000e+00 2.565000e-01 0.000000e+00
-1.512000e+00 2.565000e-01 0.000000e+00
-1.428000e+00 2.565000e-01 0.000000e+00
-1.344000e+00 2.565000e-01 0.000000e+00
-1.344000e+00 0.000000e+00 0.000000e+00
-1.260000e+00 0.000000e+00 0.000000e+00
-1.176000e+00 0.000000e+00 0.000000e+00
-1.092000e+00 0.000000e+00 0.000000e+00
-1.008000e+00 0.000000e+00 0.000000e+00
-1.344000e+00 6.412500e-02 0.000000e+00
-1.260000e+00 6.412500e-02 0.000000e+00
-1.176000e+00 6.412500e-02 0.000000e+00
-1.092000e+00 6.412500e-02 0.000000e+00
-1.008000e+00 6.412500e-02 0.000000e+00
-1.344000e+00 1.282500e-01 0.000000e+00
-1.260000e+00 1.282500e-01 0.000000e+00
-1.176000e+00 1.282500e-01 0.000000e+00
-1.092000e+00 1.282500e-01 0.000000e+00
-1.008000e+00 1.282500e-01 0.000000e+00
-1.344000e+00 1.923750e-01 0.000000e+00
-1.260000e+00 1.923750e-01 0.000000e+00
-1.176000e+00 1.923750e-01 0.000000e+00
-1.092000e+00 1.923750e-01 0.000000e+00
-1.008000e+00 1.923750e-01 0.000000e+00
-1.344000e+00 2.565000e-01 0.000000e+00
-1.260000e+00 2.565000e-01 0.000000e+00
-1.176000e+00 2.565000e-01 0.000000e+00
-1.092000e+00 2.565000e-01 0.000000e+00
-1.008000e+00 2.565000e-01 0.000000e+00
-1.008000e+00 0.000000e+00 0.000000e+00
-9.240000e-01 0.000000e+00 0.000000e+00
-8.400000e-01 0.000000e+00 0.000000e+00
-7.560000e-01 0.000000e+00 0.000000e+00
-6.720000e-01 0.000000e+00 0.000000e+00
-1.008000e+00 6.412500e-02 0.000000e+00
-9.240000e-01 6.412500e-02 0.000000e+00
-8.400000e-01 6.412500e-02 0.000000e+00
-7.560000e-01 6.412500e-02 0.000000e+00
-6.720000e-01 6.412500e-02 0.000000e+00
-1.008000e+00 1.282500e-01 0.000000e+00
-9.240000e-01 1.282500e-01 0.000000e+00
-8.400000e-01 1.282500e-01 0.000000e+00
-7.560000e-01 1.282500e-01 0.000000e+00
-6.720000e-01 1.282500e-01 0.000000e+00
-1.008000e+00 1.923750e-01 0.000000e+00
-9.240000e-01 1.923750e-01 0.000000e+00
-8.400000e-01 1.923750e-01 0.000000e+00
-7.560000e-01 1.923750e-01 0.000000e+00
-6.720000e-01 1.923750e-01 0.000000e+00
-1.008000e+00 2.565000e-01 0.000000e+00
-9.240000e-01 2.565000e-01 0.000000e+00
-8.400000e-01 2.565000e-01 0.000000e+00
-7.560000e-01 2.565000e-01 0.000000e+00
-6.720000e-01 2.565000e-01 0.000000e+00
-6.720000e-01 0.000000e+00 0.000000e+00
-5.880000e-01 0.000000e+00 0.000000e+00
-5.040000e-01 0.000000e+00 0.000000e+00
-4.200000e-01 0.000000e+00 0.000000e+00
-3.360000e-01 0.000000e+00 0.000000e+00
-6.720000e-01 6.412500e-02 0.000000e+00
-5.880000e-01 6.412500e-02 0.000000e+00
-5.040000e-01 6.412500e-02 0.000000e+00
-4.200000e-01 6.412500e-02 0.000000e+00
-3.360000e-01 6.412500e-02 0.000000e+00
-6.720000e-01 1.282500e-01 0.000000e+00
-5.880000e-01 1.282500e-01 0.000000e+00
-5.040000e-01 1.282500e-01 0.000000e+00
-4.200000e-01 1.282500e-01 0.000000e+00
-3.360000e-01 1.282500e-01 0.000000e+00
-6.720000e-01 1.923750e-01 0.000000e+00
-5.880000e-01 1.923750e-01 0.000000e+00
-5.040000e-01 1.923750e-01 0.000000e+00
-4.200000e-01 1.923750e-01 0.000000e+00
-3.360000e-01 1.923750e-01 0.000000e+00
-6.720000e-01 2.565000e-01 0.000000e+00
-5.880000e-01 2.565000e-01 0.000000e+00
-5.040000e-01 2.565000e-01 0.000000e+00
-4.200000e-01 2.565000e-01 0.000000e+00
-3.360000e-01 2.565000e-01 0.000000e+00
-3.360000e-01 0.000000e+00 0.000000e+00
-2.520000e-01 0.000000e+00 0.000000e+00
-1.680000e-01 0.000000e+00 0.000000e+00
-8.400000e-02 0.000000e+00 0.000000e+00
-4.440890e-16 0.000000e+00 0.000000e+00
-3.360000e-01 6.412500e-02 0.000000e+00
-2.520000e-01 6.412500e-02 0.000000e+00
-1.680000e-01 6.412500e-02 0.000000e+00
-8.400000e-02 6.412500e-02 0.000000e+00
-4.440890e-16 6.412500e-02 0.000000e+00
-3.360000e-01 1.282500e-01 0.000000e+00
-2.520000e-01 1.282500e-01 0.000000e+00
-1.680000e-01 1.282500e-01 0.000000e+00
-8.400000e-02 1.282500e-01 0.000000e+00
-4.440890e-16 1.282500e-01 0.000000e+00
-3.360000e-01 1.923750e-01 0.000000e+00
-2.520000e-01 1.923750e-01 0.000000e+00
-1.680000e-01 1.923750e-01 0.000000e+00
[...]
<PointData>
<DataArray type="Float32" Name="V1" format="ascii">
0.000000e+00
0.000000e+00
0.000000e+00
0.000000e+00
0.000000e+00
6.347820e-02
5.972980e-02
5.550880e-02
5.081540e-02
4.564950e-02
1.013490e-01
9.788660e-02
9.317270e-02
8.720680e-02
7.998890e-02
1.136110e-01
1.144710e-01
1.129920e-01
1.091740e-01
1.030180e-01
1.002660e-01
1.094820e-01
1.149650e-01
1.167170e-01
1.147370e-01
0.000000e+00
0.000000e+00
0.000000e+00
0.000000e+00
0.000000e+00
4.564950e-02
3.989040e-02
3.541040e-02
3.220930e-02
3.028730e-02
7.998890e-02
7.160870e-02
6.488920e-02
5.983020e-02
5.643190e-02
1.030180e-01
9.515500e-02
8.843650e-02
8.286270e-02
7.843360e-02
1.147370e-01
1.105290e-01
1.060520e-01
1.013070e-01
9.629260e-02
0.000000e+00
0.000000e+00
0.000000e+00
0.000000e+00
0.000000e+00
3.028730e-02
2.853120e-02
2.705410e-02
2.585590e-02
2.493660e-02
5.643190e-02
5.340440e-02
5.089320e-02
4.889820e-02
4.741950e-02
7.843360e-02
7.461950e-02
7.151730e-02
6.912700e-02
6.744860e-02
9.629260e-02
9.217650e-02
8.892640e-02
8.654220e-02
8.502390e-02
0.000000e+00
0.000000e+00
0.000000e+00
0.000000e+00
0.000000e+00
2.493660e-02
2.418520e-02
2.374960e-02
2.362960e-02
2.382540e-02
4.741950e-02
4.625460e-02
4.561280e-02
4.549390e-02
4.589800e-02
6.744860e-02
6.620830e-02
6.558970e-02
6.559280e-02
6.621760e-02
8.502390e-02
8.404610e-02
8.368020e-02
8.392630e-02
8.478430e-02
0.000000e+00
0.000000e+00
0.000000e+00
0.000000e+00
0.000000e+00
2.382540e-02
2.414650e-02
2.463590e-02
2.529350e-02
2.611950e-02
4.589800e-02
4.654800e-02
4.751160e-02
4.878880e-02
5.037950e-02
6.621760e-02
6.720450e-02
6.862730e-02
7.048580e-02
7.278010e-02
8.478430e-02
8.611610e-02
8.798280e-02
9.038460e-02
9.332120e-02
0.000000e+00
0.000000e+00
0.000000e+00
0.000000e+00
0.000000e+00
2.611950e-02
2.709920e-02
2.832170e-02
2.978690e-02
3.149480e-02
5.037950e-02
5.224940e-02
5.454350e-02
5.726180e-02
6.040430e-02
7.278010e-02
7.545040e-02
7.866520e-02
8.242470e-02
8.672860e-02
9.332120e-02
9.670230e-02
1.006870e-01
1.052760e-01
1.104680e-01
0.000000e+00
0.000000e+00
0.000000e+00
0.000000e+00
0.000000e+00
3.149480e-02
3.340420e-02
3.566650e-02
3.828170e-02
4.124980e-02
6.040430e-02
6.390680e-02
6.801790e-02
7.273770e-02
7.806610e-02
8.672860e-02
9.150760e-02
9.705400e-02
1.033680e-01
1.104490e-01
1.104680e-01
1.162070e-01
1.227750e-01
1.301720e-01
1.383980e-01
0.000000e+00
0.000000e+00
0.000000e+00
0.000000e+00
0.000000e+00
4.124980e-02
4.446540e-02
4.825280e-02
5.261200e-02
5.754300e-02
7.806610e-02
8.382760e-02
9.055060e-02
9.823520e-02
1.068810e-01
1.104490e-01
1.180870e-01
1.268930e-01
1.368700e-01
1.480150e-01
1.383980e-01
1.472420e-01
1.572810e-01
1.685150e-01
1.809440e-01
0.000000e+00
0.000000e+00
0.000000e+00
0.000000e+00
0.000000e+00
5.754300e-02
6.271520e-02
6.878010e-02
7.573760e-02
8.358780e-02
1.068810e-01
1.159440e-01
1.264810e-01
1.384920e-01
1.519770e-01
1.480150e-01
1.596860e-01
1.731020e-01
1.882620e-01
2.051670e-01
1.809440e-01
1.939420e-01
2.086430e-01
2.250490e-01
2.431580e-01
0.000000e+00
0.000000e+00
0.000000e+00
0.000000e+00
0.000000e+00
8.358780e-02
9.164910e-02
1.008180e-01
1.110960e-01
1.224810e-01
1.519770e-01
1.658550e-01
1.815350e-01
1.990160e-01
2.182990e-01
2.051670e-01
2.226180e-01
2.421500e-01
2.637620e-01
2.874540e-01
2.431580e-01
2.619380e-01
2.826620e-01
3.053320e-01
3.299470e-01
0.000000e+00
0.000000e+00
0.000000e+00
0.000000e+00
0.000000e+00
1.224810e-01
1.346570e-01
1.472360e-01
1.602150e-01
1.735960e-01
2.182990e-01
2.390240e-01
2.604410e-01
2.825490e-01
3.053480e-01
2.874540e-01
3.131000e-01
3.396160e-01
3.670020e-01
3.952570e-01
3.299470e-01
3.568860e-01
3.847610e-01
4.135740e-01
4.433230e-01
0.000000e+00
0.000000e+00
0.000000e+00
0.000000e+00
0.000000e+00
1.735960e-01
1.893650e-01
2.031520e-01
2.149580e-01
2.247830e-01
3.053480e-01
3.322890e-01
3.563000e-01
3.773830e-01
3.955370e-01
3.952570e-01
4.287710e-01
4.594430e-01
4.872740e-01
5.122640e-01
4.433230e-01
4.788120e-01
5.125820e-01
5.446320e-01
5.749620e-01
0.000000e+00
0.000000e+00
0.000000e+00
0.000000e+00
0.000000e+00
2.247830e-01
2.354020e-01
2.415360e-01
2.431840e-01
2.403460e-01
3.955370e-01
4.153890e-01
4.283640e-01
4.344620e-01
4.336820e-01
5.122640e-01
5.399620e-01
5.604850e-01
5.738340e-01
5.800080e-01
5.749620e-01
6.091200e-01
6.378990e-01
6.613010e-01
6.793240e-01
0.000000e+00
0.000000e+00
0.000000e+00
0.000000e+00
0.000000e+00
2.403460e-01
2.290980e-01
2.145230e-01
1.966230e-01
1.753960e-01
4.336820e-01
4.194930e-01
3.991250e-01
3.725780e-01
3.398510e-01
5.800080e-01
5.711880e-01
5.538070e-01
5.278650e-01
4.933630e-01
6.793240e-01
6.841800e-01
6.785670e-01
6.624850e-01
6.359330e-01
0.000000e+00
0.000000e+00
0.000000e+00
0.000000e+00
0.000000e+00
1.753960e-01
1.469310e-01
1.212800e-01
9.844480e-02
7.842450e-02
3.398510e-01
2.923650e-01
2.475250e-01
2.053320e-01
1.657860e-01
4.933630e-01
4.363020e-01
3.787350e-01
3.206620e-01
2.620830e-01
6.359330e-01
5.787420e-01
5.149090e-01
4.444340e-01
3.673180e-01
0.000000e+00
0.000000e+00
0.000000e+00
0.000000e+00
0.000000e+00
7.842450e-02
6.326620e-02
4.927260e-02
3.644350e-02
2.477900e-02
1.657860e-01
1.339690e-01
1.047490e-01
7.812670e-02
5.410170e-02
2.620830e-01
2.121070e-01
1.664290e-01
1.250500e-01
8.796800e-02
3.673180e-01
2.976820e-01
2.343140e-01
1.772120e-01
1.263780e-01
0.000000e+00
0.000000e+00
0.000000e+00
0.000000e+00
0.000000e+00
2.477900e-02
1.689550e-02
9.749710e-03
3.341640e-03
-2.328700e-03
5.410170e-02
3.791140e-02
2.377980e-02
1.170690e-02
1.692760e-03
8.796800e-02
6.304760e-02
4.209020e-02
2.509580e-02
1.206440e-02
1.263780e-01
9.230410e-02
6.468090e-02
4.350820e-02
2.878620e-02
0.000000e+00
0.000000e+00
0.000000e+00
0.000000e+00
0.000000e+00
-2.328700e-03
-5.938300e-03
-7.900130e-03
-8.214190e-03
-6.880470e-03
1.692760e-03
-4.629160e-03
-8.005060e-03
-8.434940e-03
-5.918790e-03
1.206440e-02
3.927420e-03
-3.148030e-04
-6.622670e-04
2.885020e-03
2.878620e-02
1.973140e-02
1.517070e-02
1.510380e-02
1.953100e-02
0.000000e+00
0.000000e+00
0.000000e+00
0.000000e+00
0.000000e+00
-6.880470e-03
-6.457010e-03
-5.807980e-03
-4.933380e-03
-3.833200e-03
-5.918790e-03
-4.980430e-03
-3.781160e-03
-2.320980e-03
-5.998900e-04
2.885020e-03
4.429730e-03
6.080450e-03
7.837190e-03
9.699940e-03
1.953100e-02
2.177350e-02
2.377690e-02
2.554110e-02
2.706630e-02
0.000000e+00
0.000000e+00
0.000000e+00
0.000000e+00
0.000000e+00
-3.833200e-03
-2.976180e-03
-3.377510e-03
-5.037200e-03
-7.955260e-03
-5.998900e-04
5.114650e-04
-2.022600e-04
-2.741060e-03
-7.104950e-03
9.699940e-03
1.046290e-02
9.525750e-03
6.888420e-03
2.550930e-03
2.706630e-02
2.687820e-02
2.580650e-02
2.385120e-02
2.101240e-02
1.002660e-01
1.094820e-01
1.149650e-01
1.167170e-01
1.147370e-01
9.945850e-02
1.078860e-01
1.139440e-01
1.176340e-01
1.189560e-01
9.848610e-02
1.059470e-01
1.121020e-01
1.169510e-01
1.204940e-01
9.734850e-02
1.036650e-01
1.094370e-01
1.146660e-01
1.193520e-01
9.604590e-02
1.010390e-01
1.059510e-01
1.107810e-01
1.155290e-01
1.147370e-01
1.105290e-01
1.060520e-01
1.013070e-01
9.629260e-02
1.189560e-01
1.176770e-01
1.155140e-01
1.124670e-01
1.085380e-01
1.204940e-01
1.214970e-01
1.212370e-01
1.197150e-01
1.169310e-01
1.193520e-01
1.219890e-01
1.232210e-01
1.230490e-01
1.214710e-01
1.155290e-01
1.191540e-01
1.214680e-01
1.224700e-01
1.221600e-01
9.629260e-02
9.217650e-02
8.892640e-02
8.654220e-02
8.502390e-02
1.085380e-01
1.049210e-01
1.020550e-01
9.993920e-02
9.857360e-02
1.169310e-01
1.140000e-01
1.116660e-01
1.099290e-01
1.087880e-01
1.214710e-01
1.194130e-01
1.177600e-01
1.165110e-01
1.156660e-01
1.221600e-01
1.211610e-01
1.203360e-01
1.196850e-01
1.192090e-01
8.502390e-02
8.404610e-02
8.368020e-02
8.392630e-02
8.478430e-02
9.857360e-02
9.781720e-02
9.767470e-02
9.814620e-02
9.923160e-02
1.087880e-01
1.082700e-01
1.083450e-01
1.090130e-01
1.102730e-01
1.156660e-01
1.154060e-01
1.156920e-01
1.165260e-01
1.179080e-01
1.192090e-01
1.192230e-01
1.197150e-01
1.206870e-01
1.221370e-01
8.478430e-02
8.611610e-02
8.798280e-02
9.038460e-02
9.332120e-02
9.923160e-02
1.008000e-01
1.029400e-01
1.056500e-01
1.089300e-01
1.102730e-01
1.120110e-01
1.143290e-01
1.172280e-01
1.207070e-01
1.179080e-01
1.197470e-01
1.221510e-01
1.251200e-01
1.286530e-01
1.221370e-01
1.240090e-01
1.264050e-01
1.293240e-01
1.327670e-01
9.332120e-02
9.670230e-02
1.006870e-01
1.052760e-01
1.104680e-01
1.089300e-01
1.126820e-01
1.170530e-01
1.220440e-01
1.276550e-01
1.207070e-01
1.246640e-01
1.292380e-01
1.344290e-01
1.402360e-01
1.286530e-01
1.326500e-01
1.372420e-01
1.424280e-01
1.482090e-01
1.327670e-01
1.366380e-01
1.410640e-01
1.460430e-01
1.515760e-01
1.104680e-01
1.162070e-01
1.227750e-01
1.301720e-01
1.383980e-01
1.276550e-01
1.337980e-01
1.407680e-01
1.485630e-01
1.571860e-01
1.402360e-01
1.465470e-01
1.536630e-01
1.615850e-01
1.703120e-01
1.482090e-01
1.544530e-01
1.614620e-01
1.692370e-01
1.777780e-01
1.515760e-01
1.575160e-01
1.641640e-01
1.715190e-01
1.795820e-01
1.383980e-01
1.472420e-01
1.572810e-01
1.685150e-01
1.809440e-01
1.571860e-01
1.663630e-01
1.767120e-01
1.882320e-01
2.009230e-01
1.703120e-01
1.795270e-01
1.898770e-01
2.013590e-01
2.139760e-01
1.777780e-01
1.867350e-01
1.967750e-01
2.078980e-01
2.201040e-01
1.795820e-01
1.879860e-01
1.974080e-01
2.078490e-01
2.193080e-01
1.809440e-01
1.939420e-01
2.086430e-01
2.250490e-01
2.431580e-01
2.009230e-01
2.140360e-01
2.288380e-01
2.453310e-01
2.635130e-01
2.139760e-01
2.268790e-01
2.414560e-01
2.577070e-01
2.756340e-01
2.201040e-01
2.324710e-01
2.464960e-01
2.621790e-01
2.795220e-01
2.193080e-01
2.308120e-01
2.439580e-01
2.587460e-01
2.751760e-01
2.431580e-01
2.619380e-01
2.826620e-01
3.053320e-01
3.299470e-01
2.635130e-01
2.821380e-01
3.027990e-01
3.254960e-01
3.502290e-01
2.756340e-01
2.937650e-01
3.140450e-01
3.364740e-01
3.610500e-01
2.795220e-01
2.968210e-01
3.164030e-01
3.382650e-01
3.624100e-01
2.751760e-01
2.913050e-01
3.098710e-01
3.308710e-01
3.543080e-01
3.299470e-01
3.568860e-01
3.847610e-01
4.135740e-01
4.433230e-01
3.502290e-01
3.771390e-01
4.052770e-01
4.346410e-01
4.652330e-01
3.610500e-01
3.875980e-01
4.156790e-01
4.452910e-01
4.764350e-01
3.624100e-01
3.882640e-01
4.159680e-01
4.455240e-01
4.769310e-01
3.543080e-01
3.791340e-01
4.061450e-01
4.353400e-01
4.667190e-01
4.433230e-01
4.788120e-01
5.125820e-01
5.446320e-01
5.749620e-01
4.652330e-01
5.021860e-01
5.378220e-01
5.721410e-01
6.051440e-01
4.764350e-01
5.145860e-01
5.517700e-01
5.879870e-01
6.232380e-01
4.769310e-01
5.160140e-01
5.544280e-01
5.921710e-01
6.292440e-01
4.667190e-01
5.064700e-01
5.457940e-01
5.846920e-01
6.231630e-01
5.749620e-01
6.091200e-01
6.378990e-01
6.613010e-01
6.793240e-01
6.051440e-01
6.443110e-01
6.785210e-01
7.077760e-01
7.320740e-01
6.232380e-01
6.670040e-01
7.060620e-01
7.404140e-01
7.700590e-01
6.292440e-01
6.771980e-01
7.205220e-01
7.592150e-01
7.932780e-01
6.231630e-01
6.748950e-01
7.219010e-01
7.641800e-01
8.017320e-01
6.793240e-01
6.841800e-01
6.785670e-01
6.624850e-01
6.359330e-01
7.320740e-01
7.467830e-01
7.518610e-01
7.473080e-01
7.331250e-01
7.700590e-01
7.926660e-01
8.064330e-01
8.113590e-01
8.074450e-01
7.932780e-01
8.218300e-01
8.422830e-01
8.546370e-01
8.588930e-01
8.017320e-01
8.342740e-01
8.594100e-01
8.771420e-01
8.874690e-01
6.359330e-01
5.787420e-01
5.149090e-01
4.444340e-01
3.673180e-01
7.331250e-01
6.880530e-01
6.313780e-01
5.631010e-01
4.832220e-01
8.074450e-01
7.730100e-01
7.244650e-01
6.618090e-01
5.850420e-01
8.588930e-01
8.336140e-01
7.941680e-01
7.405560e-01
6.727780e-01
8.874690e-01
8.698630e-01
8.404880e-01
7.993440e-01
7.464300e-01
3.673180e-01
2.976820e-01
2.343140e-01
1.772120e-01
1.263780e-01
4.832220e-01
3.967420e-01
3.164630e-01
2.423820e-01
1.745010e-01
5.850420e-01
4.897520e-01
3.984270e-01
3.110690e-01
2.276760e-01
6.727780e-01
5.767100e-01
4.802080e-01
3.832720e-01
2.859010e-01
7.464300e-01
6.576170e-01
5.618040e-01
4.589910e-01
3.491770e-01
1.263780e-01
9.230410e-02
6.468090e-02
4.350820e-02
2.878620e-02
1.745010e-01
1.315870e-01
9.677410e-02
7.006120e-02
5.144880e-02
2.276760e-01
1.755250e-01
1.329730e-01
1.000190e-01
7.666480e-02
2.859010e-01
2.241160e-01
1.732770e-01
1.333830e-01
1.044340e-01
3.491770e-01
2.773610e-01
2.176860e-01
1.701510e-01
1.347560e-01
2.878620e-02
1.973140e-02
1.517070e-02
1.510380e-02
1.953100e-02
5.144880e-02
3.950400e-02
3.320010e-02
3.253730e-02
3.751540e-02
7.666480e-02
6.083370e-02
5.192620e-02
4.994230e-02
5.488200e-02
1.044340e-01
8.372050e-02
7.134880e-02
6.731890e-02
7.163070e-02
1.347560e-01
1.081640e-01
9.146810e-02
8.466710e-02
8.776160e-02
1.953100e-02
2.177350e-02
2.377690e-02
2.554110e-02
2.706630e-02
3.751540e-02
4.005270e-02
4.208220e-02
4.360400e-02
4.461800e-02
5.488200e-02
5.747630e-02
5.936490e-02
6.054760e-02
6.102460e-02
7.163070e-02
7.404440e-02
7.562480e-02
7.637210e-02
7.628610e-02
8.776160e-02
8.975690e-02
9.086210e-02
9.107730e-02
9.040240e-02
2.706630e-02
2.687820e-02
2.580650e-02
2.385120e-02
2.101240e-02
4.461800e-02
4.412200e-02
4.277320e-02
4.057150e-02
3.751700e-02
6.102460e-02
6.010670e-02
5.840640e-02
5.592360e-02
5.265840e-02
7.628610e-02
7.483220e-02
7.270600e-02
6.990750e-02
6.643670e-02
9.040240e-02
8.829860e-02
8.567220e-02
8.252330e-02
7.885180e-02
9.604590e-02
1.010390e-01
1.059510e-01
1.107810e-01
1.155290e-01
9.458900e-02
9.906810e-02
1.035240e-01
1.079560e-01
1.123650e-01
9.299440e-02
9.709340e-02
1.011560e-01
1.051830e-01
1.091730e-01
9.126190e-02
9.511550e-02
9.884820e-02
1.024600e-01
1.059510e-01
8.939170e-02
9.313430e-02
9.659990e-02
9.978840e-02
1.027000e-01
1.155290e-01
1.191540e-01
1.214680e-01
1.224700e-01
1.221600e-01
1.123650e-01
1.160370e-01
1.186570e-01
1.202240e-01
1.207390e-01
1.091730e-01
1.127080e-01
1.154340e-01
1.173510e-01
1.184580e-01
1.059510e-01
1.091680e-01
1.118020e-01
1.138520e-01
1.153190e-01
1.027000e-01
1.054160e-01
1.077580e-01
1.097270e-01
1.113220e-01
1.221600e-01
1.211610e-01
1.203360e-01
1.196850e-01
1.192090e-01
1.207390e-01
1.205310e-01
1.203750e-01
1.202690e-01
1.202150e-01
1.184580e-01
1.188740e-01
1.192590e-01
1.196140e-01
1.199380e-01
1.153190e-01
1.161900e-01
1.169900e-01
1.177190e-01
1.183780e-01
1.113220e-01
1.124790e-01
1.135660e-01
1.145850e-01
1.155340e-01
1.192090e-01
1.192230e-01
1.197150e-01
1.206870e-01
1.221370e-01
1.202150e-01
1.205230e-01
1.212330e-01
1.223460e-01
1.238610e-01
1.199380e-01
1.205190e-01
1.214330e-01
1.226790e-01
1.242570e-01
1.183780e-01
1.192120e-01
1.203140e-01
1.216850e-01
1.233230e-01
1.155340e-01
1.166010e-01
1.178780e-01
1.193650e-01
1.210600e-01
1.221370e-01
1.240090e-01
1.264050e-01
1.293240e-01
1.327670e-01
1.238610e-01
1.257570e-01
1.281330e-01
1.309890e-01
1.343250e-01
1.242570e-01
1.261720e-01
1.285250e-01
1.313140e-01
1.345410e-01
1.233230e-01
1.252560e-01
1.275820e-01
1.303010e-01
1.334130e-01
1.210600e-01
1.230070e-01
1.253030e-01
1.279480e-01
1.309420e-01
1.327670e-01
1.366380e-01
1.410640e-01
1.460430e-01
1.515760e-01
1.343250e-01
1.380520e-01
1.423010e-01
1.470720e-01
1.523650e-01
1.345410e-01
1.381190e-01
1.421870e-01
1.467470e-01
1.517960e-01
1.334130e-01
1.368380e-01
1.407220e-01
1.450660e-01
1.498690e-01
1.309420e-01
1.342090e-01
1.379050e-01
1.420290e-01
1.465820e-01
1.515760e-01
1.575160e-01
1.641640e-01
1.715190e-01
1.795820e-01
1.523650e-01
1.580190e-01
1.643460e-01
1.713470e-01
1.790220e-01
1.517960e-01
1.571620e-01
1.631680e-01
1.698130e-01
1.770990e-01
1.498690e-01
1.549450e-01
1.606280e-01
1.669170e-01
1.738140e-01
1.465820e-01
1.513670e-01
1.567260e-01
1.626590e-01
1.691670e-01
1.795820e-01
1.879860e-01
1.974080e-01
2.078490e-01
2.193080e-01
1.790220e-01
1.869780e-01
1.959250e-01
2.058620e-01
2.167900e-01
1.770990e-01
1.846090e-01
1.930770e-01
2.025040e-01
2.128900e-01
1.738140e-01
1.808790e-01
1.888660e-01
1.977740e-01
2.076050e-01
1.691670e-01
1.757880e-01
1.832900e-01
1.916730e-01
2.009370e-01
2.193080e-01
2.308120e-01
2.439580e-01
2.587460e-01
2.751760e-01
2.167900e-01
2.276670e-01
2.402080e-01
2.544140e-01
2.702840e-01
2.128900e-01
2.231300e-01
2.350340e-01
2.486020e-01
2.638340e-01
2.076050e-01
2.172000e-01
2.284360e-01
2.413110e-01
2.558260e-01
2.009370e-01
2.098780e-01
2.204120e-01
2.325400e-01
2.462600e-01
2.751760e-01
2.913050e-01
3.098710e-01
3.308710e-01
3.543080e-01
2.702840e-01
2.855370e-01
3.034340e-01
3.239750e-01
3.471610e-01
2.638340e-01
2.781140e-01
2.952190e-01
3.151490e-01
3.379050e-01
2.558260e-01
2.690370e-01
2.852270e-01
3.043940e-01
3.265390e-01
2.462600e-01
2.583060e-01
2.734560e-01
2.917080e-01
3.130630e-01
3.543080e-01
3.791340e-01
4.061450e-01
4.353400e-01
4.667190e-01
3.471610e-01
3.711320e-01
3.977060e-01
4.268830e-01
4.586640e-01
3.379050e-01
3.606710e-01
3.864730e-01
4.153110e-01
4.471860e-01
3.265390e-01
3.477510e-01
3.724460e-01
4.006240e-01
4.322850e-01
3.130630e-01
3.323720e-01
3.556250e-01
3.828210e-01
4.139610e-01
4.667190e-01
5.064700e-01
5.457940e-01
5.846920e-01
6.231630e-01
4.586640e-01
4.992910e-01
5.396930e-01
5.798700e-01
6.198220e-01
4.471860e-01
4.882370e-01
5.291230e-01
5.698440e-01
6.104010e-01
4.322850e-01
4.733070e-01
5.140830e-01
5.546140e-01
5.949000e-01
4.139610e-01
4.545020e-01
4.945750e-01
5.341810e-01
5.733200e-01
6.231630e-01
6.748950e-01
7.219010e-01
7.641800e-01
8.017320e-01
6.198220e-01
6.757580e-01
7.264700e-01
7.719600e-01
8.122260e-01
6.104010e-01
6.699910e-01
7.238070e-01
7.718460e-01
8.141090e-01
5.949000e-01
6.575960e-01
7.139090e-01
7.638380e-01
8.073830e-01
5.733200e-01
6.385730e-01
6.967780e-01
7.479350e-01
7.920460e-01
8.017320e-01
8.342740e-01
8.594100e-01
8.771420e-01
8.874690e-01
8.122260e-01
8.484890e-01
8.771560e-01
8.982260e-01
9.116990e-01
8.141090e-01
8.536460e-01
8.854400e-01
9.094920e-01
9.258010e-01
8.073830e-01
8.497440e-01
8.842640e-01
9.109410e-01
9.297750e-01
7.920460e-01
8.367840e-01
8.736260e-01
9.025720e-01
9.236210e-01
8.874690e-01
8.698630e-01
8.404880e-01
7.993440e-01
7.464300e-01
9.116990e-01
8.954570e-01
8.701050e-01
8.356430e-01
7.920710e-01
9.258010e-01
9.102650e-01
8.879280e-01
8.587920e-01
8.228550e-01
9.297750e-01
9.142870e-01
8.939590e-01
8.687910e-01
8.387820e-01
9.236210e-01
9.075240e-01
8.881970e-01
8.656400e-01
8.398520e-01
7.464300e-01
6.576170e-01
5.618040e-01
4.589910e-01
3.491770e-01
7.920710e-01
7.132790e-01
6.232070e-01
5.218540e-01
4.092200e-01
8.228550e-01
7.532150e-01
6.696480e-01
5.721530e-01
4.607300e-01
8.387820e-01
7.774250e-01
7.011270e-01
6.098890e-01
5.037090e-01
8.398520e-01
7.859100e-01
7.176460e-01
6.350610e-01
5.381550e-01
3.491770e-01
2.773610e-01
2.176860e-01
1.701510e-01
1.347560e-01
4.092200e-01
3.298790e-01
2.627460e-01
2.078230e-01
1.651080e-01
4.607300e-01
3.772140e-01
3.050540e-01
2.442510e-01
1.948030e-01
5.037090e-01
4.193680e-01
3.446100e-01
2.794350e-01
2.238430e-01
5.381550e-01
4.563400e-01
3.814140e-01
3.133760e-01
2.522270e-01
1.347560e-01
1.081640e-01
9.146810e-02
8.466710e-02
8.776160e-02
1.651080e-01
1.328520e-01
1.116330e-01
1.014530e-01
1.023100e-01
1.948030e-01
1.575970e-01
1.322100e-01
1.186440e-01
1.168970e-01
2.238430e-01
1.824000e-01
1.531990e-01
1.362400e-01
1.315220e-01
2.522270e-01
2.072620e-01
1.746000e-01
1.542410e-01
1.461860e-01
8.776160e-02
8.975690e-02
9.086210e-02
9.107730e-02
9.040240e-02
1.023100e-01
1.036330e-01
1.040750e-01
1.036350e-01
1.023120e-01
1.168970e-01
1.170470e-01
1.164440e-01
1.150860e-01
1.129750e-01
1.315220e-01
1.299980e-01
1.279680e-01
1.254320e-01
1.223910e-01
1.461860e-01
1.424860e-01
1.386480e-01
1.346730e-01
1.305600e-01
9.040240e-02
8.829860e-02
8.567220e-02
8.252330e-02
7.885180e-02
1.023120e-01
9.944450e-02
9.627970e-02
9.281810e-02
8.905950e-02
1.129750e-01
1.092690e-01
1.055160e-01
1.017180e-01
9.787430e-02
1.223910e-01
1.177710e-01
1.133810e-01
1.092230e-01
1.052960e-01
1.305600e-01
1.249510e-01
1.198750e-01
1.153330e-01
1.113250e-01
8.939170e-02
9.313430e-02
9.659990e-02
9.978840e-02
1.027000e-01
8.740010e-02
9.087790e-02
9.405410e-02
9.692870e-02
9.950170e-02
8.530680e-02
8.851710e-02
9.141420e-02
9.399800e-02
9.626860e-02
8.311190e-02
8.605190e-02
8.868000e-02
9.099630e-02
9.300060e-02
8.081530e-02
8.348240e-02
8.585180e-02
8.792350e-02
8.969760e-02
1.027000e-01
1.054160e-01
1.077580e-01
1.097270e-01
1.113220e-01
9.950170e-02