<?xml version="1.0"?>
<VTKFile type="UnstructuredGrid" version="0.1" byte_order="LittleEndian" compressor="vtkZLibDataCompressor">
<UnstructuredGrid>
<Piece NumberOfPoints="10000" NumberOfCells="6400">
<Points>
<DataArray type="Float32" NumberOfComponents="3" format="ascii">
-3.360000e+00 0.000000e+00 0.000000e+00
-3.276000e+00 0.000000e+00 0.000000e+00
-3.192000e+00 0.000000e+00 0.000000e+00
-3.108000e+00 0.000000e+00 0.000000e+00
-3.024000e+00 0.000000e+00 0.000000e+00
-3.360000e+00 6.412500e-02 0.000000e+00
-3.276000e+00 6.412500e-02 0.000000e+00
-3.192000e+00 6.412500e-02 0.000000e+00
-3.108000e+00 6.412500e-02 0.000000e+00
-3.024000e+00 6.412500e-02 0.000000e+00
-3.360000e+00 1.282500e-01 0.000000e+00
-3.276000e+00 1.282500e-01 0.000000e+00
-3.192000e+00 1.282500e-01 0.000000e+00
-3.108000e+00 1.282500e-01 0.000000e+00
-3.024000e+00 1.282500e-01 0.000000e+00
-3.360000e+00 1.923750e-01 0.000000e+00
-3.276000e+00 1.923750e-01 0.000000e+00
-3.192000e+00 1.923750e-01 0.000000e+00
-3.108000e+00 1.923750e-01 0.000000e+00
-3.024000e+00 1.923750e-01 0.000000e+00
-3.360000e+00 2.565000e-01 0.000000e+00
-3.276000e+00 2.565000e-01 0.000000e+00
-3.192000e+00 2.565000e-01 0.000000e+00
-3.108000e+00 2.565000e-01 0.000000e+00
-3.024000e+00 2.565000e-01 0.000000e+00
-3.024000e+00 0.000000e+00 0.000000e+00
-2.940000e+00 0.000000e+00 0.000000e+00
-2.856000e+00 0.000000e+00 0.000000e+00
-2.772000e+00 0.000000e+00 0.000000e+00
-2.688000e+00 0.000000e+00 0.000000e+00
-3.024000e+00 6.412500e-02 0.000000e+00
-2.940000e+00 6.412500e-02 0.000000e+00
-2.856000e+00 6.412500e-02 0.000000e+00
-2.772000e+00 6.412500e-02 0.000000e+00
-2.688000e+00 6.412500e-02 0.000000e+00
-3.024000e+00 1.282500e-01 0.000000e+00
-2.940000e+00 1.282500e-01 0.000000e+00
-2.856000e+00 1.282500e-01 0.000000e+00
-2.772000e+00 1.282500e-01 0.000000e+00
-2.688000e+00 1.282500e-01 0.000000e+00
-3.024000e+00 1.923750e-01 0.000000e+00
-2.940000e+00 1.923750e-01 0.000000e+00
-2.856000e+00 1.923750e-01 0.000000e+00
-2.772000e+00 1.923750e-01 0.000000e+00
-2.688000e+00 1.923750e-01 0.000000e+00
-3.024000e+00 2.565000e-01 0.000000e+00
-2.940000e+00 2.565000e-01 0.000000e+00
-2.856000e+00 2.565000e-01 0.000000e+00
-2.772000e+00 2.565000e-01 0.000000e+00
-2.688000e+00 2.565000e-01 0.000000e+00
-2.688000e+00 0.000000e+00 0.000000e+00
-2.604000e+00 0.000000e+00 0.000000e+00
-2.520000e+00 0.000000e+00 0.000000e+00
-2.436000e+00 0.000000e+00 0.000000e+00
-2.352000e+00 0.000000e+00 0.000000e+00
-2.688000e+00 6.412500e-02 0.000000e+00
-2.604000e+00 6.412500e-02 0.000000e+00
-2.520000e+00 6.412500e-02 0.000000e+00
-2.436000e+00 6.412500e-02 0.000000e+00
-2.352000e+00 6.412500e-02 0.000000e+00
-2.688000e+00 1.282500e-01 0.000000e+00
-2.604000e+00 1.282500e-01 0.000000e+00
-2.520000e+00 1.282500e-01 0.000000e+00
-2.436000e+00 1.282500e-01 0.000000e+00
-2.352000e+00 1.282500e-01 0.000000e+00
-2.688000e+00 1.923750e-01 0.000000e+00
-2.604000e+00 1.923750e-01 0.000000e+00
-2.520000e+00 1.923750e-01 0.000000e+00
-2.436000e+00 1.923750e-01 0.000000e+00
-2.352000e+00 1.923750e-01 0.000000e+00
-2.688000e+00 2.565000e-01 0.000000e+00
-2.604000e+00 2.565000e-01 0.000000e+00
-2.520000e+00 2.565000e-01 0.000000e+00
-2.436000e+00 2.565000e-01 0.000000e+00
-2.352000e+00 2.565000e-01 0.000000e+00
-2.352000e+00 0.000000e+00 0.000000e+00
-2.268000e+00 0.000000e+00 0.000000e+00
-2.184000e+00 0.000000e+00 0.000000e+00
-2.100000e+00 0.000000e+00 0.000000e+00
-2.016000e+00 0.000000e+00 0.000000e+00
-2.352000e+00 6.412500e-02 0.000000e+00
-2.268000e+00 6.412500e-02 0.000000e+00
-2.184000e+00 6.412500e-02 0.000000e+00
-2.100000e+00 6.412500e-02 0.000000e+00
-2.016000e+00 6.412500e-02 0.000000e+00
-2.352000e+00 1.282500e-01 0.000000e+00
-2.268000e+00 1.282500e-01 0.000000e+00
-2.184000e+00 1.282500e-01 0.000000e+00
-2.100000e+00 1.282500e-01 0.000000e+00
-2.016000e+00 1.282500e-01 0.000000e+00
-2.352000e+00 1.923750e-01 0.000000e+00
-2.268000e+00 1.923750e-01 0.000000e+00
-2.184000e+00 1.923750e-01 0.000000e+00
-2.100000e+00 1.923750e-01 0.000000e+00
-2.016000e+00 1.923750e-01 0.000000e+00
-2.352000e+00 2.565000e-01 0.000000e+00
-2.268000e+00 2.565000e-01 0.000000e+00
-2.184000e+00 2.565000e-01 0.000000e+00
-2.100000e+00 2.565000e-01 0.000000e+00
-2.016000e+00 2.565000e-01 0.000000e+00
-2.016000e+00 0.000000e+00 0.000000e+00
-1.932000e+00 0.000000e+00 0.000000e+00
-1.848000e+00 0.000000e+00 0.000000e+00
-1.764000e+00 0.000000e+00 0.000000e+00
-1.680000e+00 0.000000e+00 0.000000e+00
-2.016000e+00 6.412500e-02 0.000000e+00
-1.932000e+00 6.412500e-02 0.000000e+00
-1.848000e+00 6.412500e-02 0.000000e+00
-1.764000e+00 6.412500e-02 0.000000e+00
-1.680000e+00 6.412500e-02 0.000000e+00
-2.016000e+00 1.282500e-01 0.000000e+00
-1.932000e+00 1.282500e-01 0.000000e+00
-1.848000e+00 1.282500e-01 0.000000e+00
-1.764000e+00 1.282500e-01 0.000000e+00
-1.680000e+00 1.282500e-01 0.000000e+00
-2.016000e+00 1.923750e-01 0.000000e+00
-1.932000e+00 1.923750e-01 0.000000e+00
-1.848000e+00 1.923750e-01 0.000000e+00
-1.764000e+00 1.923750e-01 0.000000e+00
-1.680000e+00 1.923750e-01 0.000000e+00
-2.016000e+00 2.565000e-01 0.000000e+00
-1.932000e+00 2.565000e-01 0.000000e+00
-1.848000e+00 2.565000e-01 0.000000e+00
-1.764000e+00 2.565000e-01 0.000000e+00
-1.680000e+00 2.565000e-01 0.000000e+00
-1.680000e+00 0.000000e+00 0.000000e+00
-1.596000e+00 0.000000e+00 0.000000e+00
-1.512000e+00 0.000000e+00 0.000000e+00
-1.428000e+00 0.000000e+00 0.000000e+00
-1.344000e+00 0.000000e+00 0.000000e+00
-1.680000e+00 6.412500e-02 0.000000e+00
-1.596000e+00 6.412500e-02 0.000000e+00
-1.512000e+00 6.412500e-02 0.000000e+00
-1.428000e+00 6.412500e-02 0.000000e+00
-1.344000e+00 6.412500e-02 0.000000e+00
-1.680000e+00 1.282500e-01 0.000000e+00
-1.596000e+00 1.282500e-01 0.000000e+00
-1.512000e+00 1.282500e-01 0.000000e+00
-1.428000e+00 1.282500e-01 0.000000e+00
-1.344000e+00 1.282500e-01 0.000000e+00
-1.680000e+00 1.923750e-01 0.000000e+00
-1.596000e+00 1.923750e-01 0.000000e+00
-1.512000e+00 1.923750e-01 0.000000e+00
-1.428000e+00 1.923750e-01 0.000000e+00
-1.344000e+00 1.923750e-01 0.000000e+00
-1.680000e+00 2.565000e-01 0.000000e+00
-1.596000e+00 2.565000e-01 0.000000e+00
-1.512000e+00 2.565000e-01 0.000000e+00
-1.428000e+00 2.565000e-01 0.000000e+00
-1.344000e+00 2.565000e-01 0.000000e+00
-1.344000e+00 0.000000e+00 0.000000e+00
-1.260000e+00 0.000000e+00 0.000000e+00
-1.176000e+00 0.000000e+00 0.000000e+00
-1.092000e+00 0.000000e+00 0.000000e+00
-1.008000e+00 0.000000e+00 0.000000e+00
-1.344000e+00 6.412500e-02 0.000000e+00
-1.260000e+00 6.412500e-02 0.000000e+00
-1.176000e+00 6.412500e-02 0.000000e+00
-1.092000e+00 6.412500e-02 0.000000e+00
-1.008000e+00 6.412500e-02 0.000000e+00
-1.344000e+00 1.282500e-01 0.000000e+00
-1.260000e+00 1.282500e-01 0.000000e+00
-1.176000e+00 1.282500e-01 0.000000e+00
-1.092000e+00 1.282500e-01 0.000000e+00
-1.008000e+00 1.282500e-01 0.000000e+00
-1.344000e+00 1.923750e-01 0.000000e+00
-1.260000e+00 1.923750e-01 0.000000e+00
-1.176000e+00 1.923750e-01 0.000000e+00
-1.092000e+00 1.923750e-01 0.000000e+00
-1.008000e+00 1.923750e-01 0.000000e+00
-1.344000e+00 2.565000e-01 0.000000e+00
-1.260000e+00 2.565000e-01 0.000000e+00
-1.176000e+00 2.565000e-01 0.000000e+00
-1.092000e+00 2.565000e-01 0.000000e+00
-1.008000e+00 2.565000e-01 0.000000e+00
-1.008000e+00 0.000000e+00 0.000000e+00
-9.240000e-01 0.000000e+00 0.000000e+00
-8.400000e-01 0.000000e+00 0.000000e+00
-7.560000e-01 0.000000e+00 0.000000e+00
-6.720000e-01 0.000000e+00 0.000000e+00
-1.008000e+00 6.412500e-02 0.000000e+00
-9.240000e-01 6.412500e-02 0.000000e+00
-8.400000e-01 6.412500e-02 0.000000e+00
-7.560000e-01 6.412500e-02 0.000000e+00
-6.720000e-01 6.412500e-02 0.000000e+00
-1.008000e+00 1.282500e-01 0.000000e+00
-9.240000e-01 1.282500e-01 0.000000e+00
-8.400000e-01 1.282500e-01 0.000000e+00
-7.560000e-01 1.282500e-01 0.000000e+00
-6.720000e-01 1.282500e-01 0.000000e+00
-1.008000e+00 1.923750e-01 0.000000e+00
-9.240000e-01 1.923750e-01 0.000000e+00
-8.400000e-01 1.923750e-01 0.000000e+00
-7.560000e-01 1.923750e-01 0.000000e+00
-6.720000e-01 1.923750e-01 0.000000e+00
-1.008000e+00 2.565000e-01 0.000000e+00
-9.240000e-01 2.565000e-01 0.000000e+00
-8.400000e-01 2.565000e-01 0.000000e+00
-7.560000e-01 2.565000e-01 0.000000e+00
-6.720000e-01 2.565000e-01 0.000000e+00
-6.720000e-01 0.000000e+00 0.000000e+00
-5.880000e-01 0.000000e+00 0.000000e+00
-5.040000e-01 0.000000e+00 0.000000e+00
-4.200000e-01 0.000000e+00 0.000000e+00
-3.360000e-01 0.000000e+00 0.000000e+00
-6.720000e-01 6.412500e-02 0.000000e+00
-5.880000e-01 6.412500e-02 0.000000e+00
-5.040000e-01 6.412500e-02 0.000000e+00
-4.200000e-01 6.412500e-02 0.000000e+00
-3.360000e-01 6.412500e-02 0.000000e+00
-6.720000e-01 1.282500e-01 0.000000e+00
-5.880000e-01 1.282500e-01 0.000000e+00
-5.040000e-01 1.282500e-01 0.000000e+00
-4.200000e-01 1.282500e-01 0.000000e+00
-3.360000e-01 1.282500e-01 0.000000e+00
-6.720000e-01 1.923750e-01 0.000000e+00
-5.880000e-01 1.923750e-01 0.000000e+00
-5.040000e-01 1.923750e-01 0.000000e+00
-4.200000e-01 1.923750e-01 0.000000e+00
-3.360000e-01 1.923750e-01 0.000000e+00
-6.720000e-01 2.565000e-01 0.000000e+00
-5.880000e-01 2.565000e-01 0.000000e+00
-5.040000e-01 2.565000e-01 0.000000e+00
-4.200000e-01 2.565000e-01 0.000000e+00
-3.360000e-01 2.565000e-01 0.000000e+00
-3.360000e-01 0.000000e+00 0.000000e+00
-2.520000e-01 0.000000e+00 0.000000e+00
-1.680000e-01 0.000000e+00 0.000000e+00
-8.400000e-02 0.000000e+00 0.000000e+00
-4.440890e-16 0.000000e+00 0.000000e+00
-3.360000e-01 6.412500e-02 0.000000e+00
-2.520000e-01 6.412500e-02 0.000000e+00
-1.680000e-01 6.412500e-02 0.000000e+00
-8.400000e-02 6.412500e-02 0.000000e+00
-4.440890e-16 6.412500e-02 0.000000e+00
-3.360000e-01 1.282500e-01 0.000000e+00
-2.520000e-01 1.282500e-01 0.000000e+00
-1.680000e-01 1.282500e-01 0.000000e+00
-8.400000e-02 1.282500e-01 0.000000e+00
-4.440890e-16 1.282500e-01 0.000000e+00
-3.360000e-01 1.923750e-01 0.000000e+00
-2.520000e-01 1.923750e-01 0.000000e+00
-1.680000e-01 1.923750e-01 0.000000e+00
[...]
<PointData>
<DataArray type="Float32" Name="V1" format="ascii">
0.000000e+00
0.000000e+00
0.000000e+00
0.000000e+00
0.000000e+00
6.347820e-02
5.975440e-02
5.557000e-02
5.092500e-02
4.581930e-02
1.013490e-01
9.792750e-02
9.327440e-02
8.738930e-02
8.027220e-02
1.136110e-01
1.145190e-01
1.131130e-01
1.093930e-01
1.033580e-01
1.002660e-01
1.095290e-01
1.150860e-01
1.169360e-01
1.150780e-01
0.000000e+00
0.000000e+00
0.000000e+00
0.000000e+00
0.000000e+00
4.581930e-02
4.009030e-02
3.560030e-02
3.234920e-02
3.033700e-02
8.027220e-02
7.194420e-02
6.520510e-02
6.005480e-02
5.649340e-02
1.033580e-01
9.556170e-02
8.881450e-02
8.311700e-02
7.846910e-02
1.150780e-01
1.109430e-01
1.064290e-01
1.015360e-01
9.626420e-02
0.000000e+00
0.000000e+00
0.000000e+00
0.000000e+00
0.000000e+00
3.033700e-02
2.845080e-02
2.681980e-02
2.544400e-02
2.432360e-02
5.649340e-02
5.322500e-02
5.042930e-02
4.810610e-02
4.625560e-02
7.846910e-02
7.432280e-02
7.082840e-02
6.798620e-02
6.579610e-02
9.626420e-02
9.174400e-02
8.801730e-02
8.508430e-02
8.294500e-02
0.000000e+00
0.000000e+00
0.000000e+00
0.000000e+00
0.000000e+00
2.432360e-02
2.337890e-02
2.275610e-02
2.245530e-02
2.247620e-02
4.625560e-02
4.473040e-02
4.373750e-02
4.327710e-02
4.334900e-02
6.579610e-02
6.405430e-02
6.294420e-02
6.246550e-02
6.261840e-02
8.294500e-02
8.135080e-02
8.037600e-02
8.002050e-02
8.028430e-02
0.000000e+00
0.000000e+00
0.000000e+00
0.000000e+00
0.000000e+00
2.247620e-02
2.261770e-02
2.291800e-02
2.337720e-02
2.399520e-02
4.334900e-02
4.366120e-02
4.427100e-02
4.517840e-02
4.638340e-02
6.261840e-02
6.313060e-02
6.405900e-02
6.540370e-02
6.716460e-02
8.028430e-02
8.102570e-02
8.228200e-02
8.405300e-02
8.633880e-02
0.000000e+00
0.000000e+00
0.000000e+00
0.000000e+00
0.000000e+00
2.399520e-02
2.474570e-02
2.570450e-02
2.687140e-02
2.824660e-02
4.638340e-02
4.783240e-02
4.964780e-02
5.182950e-02
5.437770e-02
6.716460e-02
6.926000e-02
7.182990e-02
7.487440e-02
7.839330e-02
8.633880e-02
8.902850e-02
9.225090e-02
9.600590e-02
1.002930e-01
0.000000e+00
0.000000e+00
0.000000e+00
0.000000e+00
0.000000e+00
2.824660e-02
2.979140e-02
3.161990e-02
3.373190e-02
3.612750e-02
5.437770e-02
5.723300e-02
6.058280e-02
6.442700e-02
6.876550e-02
7.839330e-02
8.232490e-02
8.688880e-02
9.208520e-02
9.791390e-02
1.002930e-01
1.050670e-01
1.105380e-01
1.167070e-01
1.235730e-01
0.000000e+00
0.000000e+00
0.000000e+00
0.000000e+00
0.000000e+00
3.612750e-02
3.873730e-02
4.178670e-02
4.527590e-02
4.920480e-02
6.876550e-02
7.348430e-02
7.895010e-02
8.516290e-02
9.212270e-02
9.791390e-02
1.042410e-01
1.114900e-01
1.196610e-01
1.287540e-01
1.235730e-01
1.310070e-01
1.394060e-01
1.487700e-01
1.590970e-01
0.000000e+00
0.000000e+00
0.000000e+00
0.000000e+00
0.000000e+00
4.920480e-02
5.337510e-02
5.820820e-02
6.370410e-02
6.986280e-02
9.212270e-02
9.950480e-02
1.079940e-01
1.175900e-01
1.282920e-01
1.287540e-01
1.383890e-01
1.493570e-01
1.616560e-01
1.752880e-01
1.590970e-01
1.700280e-01
1.822970e-01
1.959040e-01
2.108500e-01
0.000000e+00
0.000000e+00
0.000000e+00
0.000000e+00
0.000000e+00
6.986280e-02
7.626030e-02
8.351510e-02
9.162730e-02
1.005970e-01
1.282920e-01
1.394210e-01
1.519620e-01
1.659140e-01
1.812770e-01
1.752880e-01
1.894830e-01
2.053400e-01
2.228590e-01
2.420400e-01
2.108500e-01
2.264450e-01
2.436500e-01
2.624630e-01
2.828860e-01
0.000000e+00
0.000000e+00
0.000000e+00
0.000000e+00
0.000000e+00
1.005970e-01
1.100510e-01
1.200400e-01
1.305630e-01
1.416200e-01
1.812770e-01
1.975320e-01
2.146800e-01
2.327230e-01
2.516590e-01
2.420400e-01
2.624420e-01
2.839220e-01
3.064800e-01
3.301170e-01
2.828860e-01
3.047810e-01
3.277640e-01
3.518350e-01
3.769940e-01
0.000000e+00
0.000000e+00
0.000000e+00
0.000000e+00
0.000000e+00
1.416200e-01
1.541420e-01
1.656440e-01
1.761260e-01
1.855870e-01
2.516590e-01
2.731840e-01
2.932070e-01
3.117270e-01
3.287440e-01
3.301170e-01
3.571270e-01
3.826890e-01
4.068030e-01
4.294700e-01
3.769940e-01
4.059690e-01
4.340890e-01
4.613550e-01
4.877650e-01
0.000000e+00
0.000000e+00
0.000000e+00
0.000000e+00
0.000000e+00
1.855870e-01
1.964290e-01
2.040030e-01
2.083080e-01
2.093450e-01
3.287440e-01
3.482990e-01
3.628530e-01
3.724060e-01
3.769600e-01
4.294700e-01
4.556080e-01
4.765500e-01
4.922950e-01
5.028430e-01
4.877650e-01
5.183590e-01
5.450950e-01
5.679750e-01
5.869970e-01
0.000000e+00
0.000000e+00
0.000000e+00
0.000000e+00
0.000000e+00
2.093450e-01
2.061720e-01
1.994650e-01
1.892250e-01
1.754520e-01
3.769600e-01
3.749500e-01
3.669420e-01
3.529350e-01
3.329300e-01
5.028430e-01
5.063340e-01
5.024300e-01
4.911300e-01
4.724340e-01
5.869970e-01
6.003250e-01
6.059290e-01
6.038090e-01
5.939650e-01
0.000000e+00
0.000000e+00
0.000000e+00
0.000000e+00
0.000000e+00
1.754520e-01
1.534740e-01
1.322180e-01
1.116860e-01
9.187630e-02
3.329300e-01
2.982290e-01
2.630480e-01
2.273860e-01
1.912430e-01
4.724340e-01
4.342670e-01
3.924890e-01
3.471000e-01
2.981010e-01
5.939650e-01
5.615860e-01
5.205410e-01
4.708280e-01
4.124490e-01
0.000000e+00
0.000000e+00
0.000000e+00
0.000000e+00
0.000000e+00
9.187630e-02
7.411520e-02
5.887980e-02
4.617000e-02
3.598590e-02
1.912430e-01
1.565710e-01
1.259790e-01
9.946810e-02
7.703780e-02
2.981010e-01
2.473670e-01
2.012980e-01
1.598940e-01
1.231550e-01
4.124490e-01
3.465030e-01
2.848360e-01
2.274480e-01
1.743390e-01
0.000000e+00
0.000000e+00
0.000000e+00
0.000000e+00
0.000000e+00
3.598590e-02
2.890640e-02
2.187120e-02
1.488010e-02
7.933160e-03
7.703780e-02
6.123810e-02
4.630060e-02
3.222520e-02
1.901180e-02
1.231550e-01
9.699510e-02
7.328830e-02
5.203530e-02
3.323590e-02
1.743390e-01
1.361770e-01
1.028340e-01
7.431040e-02
5.060540e-02
0.000000e+00
0.000000e+00
0.000000e+00
0.000000e+00
0.000000e+00
7.933160e-03
3.414880e-03
-3.992060e-05
-2.431230e-03
-3.759040e-03
1.901180e-02
1.036080e-02
3.901030e-03
-3.674860e-04
-2.444760e-03
3.323590e-02
2.083770e-02
1.182280e-02
6.191220e-03
3.942840e-03
5.060540e-02
3.484570e-02
2.372550e-02
1.724490e-02
1.540380e-02
0.000000e+00
0.000000e+00
0.000000e+00
0.000000e+00
0.000000e+00
-3.759040e-03
-4.924210e-03
-5.540250e-03
-5.607160e-03
-5.124940e-03
-2.444760e-03
-4.245050e-03
-5.166760e-03
-5.209900e-03
-4.374470e-03
3.942840e-03
2.037490e-03
1.120470e-03
1.191770e-03
2.251410e-03
1.540380e-02
1.392340e-02
1.332140e-02
1.359790e-02
1.475270e-02
0.000000e+00
0.000000e+00
0.000000e+00
0.000000e+00
0.000000e+00
-5.124940e-03
-4.893150e-03
-5.724850e-03
-7.620030e-03
-1.057870e-02
-4.374470e-03
-4.191930e-03
-5.540020e-03
-8.418720e-03
-1.282800e-02
2.251410e-03
2.103650e-03
5.544960e-04
-2.396050e-03
-6.748000e-03
1.475270e-02
1.399360e-02
1.255870e-02
1.044800e-02
7.661410e-03
1.002660e-01
1.095290e-01
1.150860e-01
1.169360e-01
1.150780e-01
9.945850e-02
1.079350e-01
1.140700e-01
1.178630e-01
1.193140e-01
9.848610e-02
1.059990e-01
1.122350e-01
1.171940e-01
1.208760e-01
9.734850e-02
1.037210e-01
1.095810e-01
1.149280e-01
1.197620e-01
9.604590e-02
1.011000e-01
1.061070e-01
1.110640e-01
1.159740e-01
1.150780e-01
1.109430e-01
1.064290e-01
1.015360e-01
9.626420e-02
1.193140e-01
1.181300e-01
1.159470e-01
1.127670e-01
1.085890e-01
1.208760e-01
1.219970e-01
1.217430e-01
1.201130e-01
1.171070e-01
1.197620e-01
1.225450e-01
1.238150e-01
1.235730e-01
1.218180e-01
1.159740e-01
1.197730e-01
1.221640e-01
1.231470e-01
1.227230e-01
9.626420e-02
9.174400e-02
8.801730e-02
8.508430e-02
8.294500e-02
1.085890e-01
1.045570e-01
1.011910e-01
9.849360e-02
9.646310e-02
1.171070e-01
1.137750e-01
1.109490e-01
1.086300e-01
1.068170e-01
1.218180e-01
1.194000e-01
1.172910e-01
1.154940e-01
1.140070e-01
1.227230e-01
1.214300e-01
1.202170e-01
1.190850e-01
1.180330e-01
8.294500e-02
8.135080e-02
8.037600e-02
8.002050e-02
8.028430e-02
9.646310e-02
9.503750e-02
9.423000e-02
9.404040e-02
9.446890e-02
1.068170e-01
1.056140e-01
1.050030e-01
1.049840e-01
1.055570e-01
1.140070e-01
1.130800e-01
1.126950e-01
1.128520e-01
1.135500e-01
1.180330e-01
1.174360e-01
1.173060e-01
1.176430e-01
1.184460e-01
8.028430e-02
8.102570e-02
8.228200e-02
8.405300e-02
8.633880e-02
9.446890e-02
9.538930e-02
9.686480e-02
9.889540e-02
1.014810e-01
1.055570e-01
1.066200e-01
1.082510e-01
1.104510e-01
1.132210e-01
1.135500e-01
1.147170e-01
1.164410e-01
1.187210e-01
1.215570e-01
1.184460e-01
1.196810e-01
1.214340e-01
1.237040e-01
1.264910e-01
8.633880e-02
8.902850e-02
9.225090e-02
9.600590e-02
1.002930e-01
1.014810e-01
1.045060e-01
1.080870e-01
1.122240e-01
1.169170e-01
1.132210e-01
1.164440e-01
1.202270e-01
1.245720e-01
1.294770e-01
1.215570e-01
1.248410e-01
1.286720e-01
1.330500e-01
1.379740e-01
1.264910e-01
1.297000e-01
1.334220e-01
1.376580e-01
1.424080e-01
1.002930e-01
1.050670e-01
1.105380e-01
1.167070e-01
1.235730e-01
1.169170e-01
1.220950e-01
1.279810e-01
1.345740e-01
1.418740e-01
1.294770e-01
1.348530e-01
1.409270e-01
1.476980e-01
1.551670e-01
1.379740e-01
1.433400e-01
1.493750e-01
1.560790e-01
1.634520e-01
1.424080e-01
1.475560e-01
1.533250e-01
1.597160e-01
1.667280e-01
1.235730e-01
1.310070e-01
1.394060e-01
1.487700e-01
1.590970e-01
1.418740e-01
1.497110e-01
1.585030e-01
1.682500e-01
1.789520e-01
1.551670e-01
1.631300e-01
1.720230e-01
1.818470e-01
1.926020e-01
1.634520e-01
1.712650e-01
1.799680e-01
1.895630e-01
2.000470e-01
1.667280e-01
1.741150e-01
1.823370e-01
1.913950e-01
2.012880e-01
1.590970e-01
1.700280e-01
1.822970e-01
1.959040e-01
2.108500e-01
1.789520e-01
1.901660e-01
2.027050e-01
2.165710e-01
2.317620e-01
1.926020e-01
2.037770e-01
2.162590e-01
2.300480e-01
2.451450e-01
2.000470e-01
2.108610e-01
2.229570e-01
2.363360e-01
2.509970e-01
2.012880e-01
2.114180e-01
2.228000e-01
2.354340e-01
2.493180e-01
2.108500e-01
2.264450e-01
2.436500e-01
2.624630e-01
2.828860e-01
2.317620e-01
2.474540e-01
2.647960e-01
2.837870e-01
3.044270e-01
2.451450e-01
2.605860e-01
2.777310e-01
2.965800e-01
3.171330e-01
2.509970e-01
2.658400e-01
2.824550e-01
3.008430e-01
3.210040e-01
2.493180e-01
2.632160e-01
2.789690e-01
2.965760e-01
3.160390e-01
2.828860e-01
3.047810e-01
3.277640e-01
3.518350e-01
3.769940e-01
3.044270e-01
3.264120e-01
3.496740e-01
3.742120e-01
4.000270e-01
3.171330e-01
3.388590e-01
3.620750e-01
3.867840e-01
4.129830e-01
3.210040e-01
3.421200e-01
3.649680e-01
3.895490e-01
4.158620e-01
3.160390e-01
3.361950e-01
3.583520e-01
3.825080e-01
4.086640e-01
3.769940e-01
4.059690e-01
4.340890e-01
4.613550e-01
4.877650e-01
4.000270e-01
4.299110e-01
4.593030e-01
4.882040e-01
5.166130e-01
4.129830e-01
4.434890e-01
4.738500e-01
5.040680e-01
5.341420e-01
4.158620e-01
4.467020e-01
4.777300e-01
5.089470e-01
5.403520e-01
4.086640e-01
4.395500e-01
4.709420e-01
5.028400e-01
5.352430e-01
4.877650e-01
5.183590e-01
5.450950e-01
5.679750e-01
5.869970e-01
5.166130e-01
5.506090e-01
5.811770e-01
6.083170e-01
6.320290e-01
5.341420e-01
5.712670e-01
6.052810e-01
6.361850e-01
6.639780e-01
5.403520e-01
5.803320e-01
6.174070e-01
6.515770e-01
6.828430e-01
5.352430e-01
5.778040e-01
6.175550e-01
6.544950e-01
6.886250e-01
5.869970e-01
6.003250e-01
6.059290e-01
6.038090e-01
5.939650e-01
6.320290e-01
6.526440e-01
6.661900e-01
6.726670e-01
6.720760e-01
6.639780e-01
6.907620e-01
7.109890e-01
7.246600e-01
7.317730e-01
6.828430e-01
7.146790e-01
7.403260e-01
7.597860e-01
7.730570e-01
6.886250e-01
7.243950e-01
7.542020e-01
7.780460e-01
7.959280e-01
5.939650e-01
5.615860e-01
5.205410e-01
4.708280e-01
4.124490e-01
6.720760e-01
6.507010e-01
6.187960e-01
5.763610e-01
5.233950e-01
7.317730e-01
7.193050e-01
6.958010e-01
6.612630e-01
6.156890e-01
7.730570e-01
7.673980e-01
7.515570e-01
7.255340e-01
6.893290e-01
7.959280e-01
7.949800e-01
7.860620e-01
7.691740e-01
7.443170e-01
4.124490e-01
3.465030e-01
2.848360e-01
2.274480e-01
1.743390e-01
5.233950e-01
4.499600e-01
3.775770e-01
3.062450e-01
2.359650e-01
6.156890e-01
5.410220e-01
4.635140e-01
3.831650e-01
2.999750e-01
6.893290e-01
6.196880e-01
5.426480e-01
4.582070e-01
3.663680e-01
7.443170e-01
6.859590e-01
6.149770e-01
5.313720e-01
4.351440e-01
1.743390e-01
1.361770e-01
1.028340e-01
7.431040e-02
5.060540e-02
2.359650e-01
1.853060e-01
1.414110e-01
1.042810e-01
7.391680e-02
2.999750e-01
2.378710e-01
1.838670e-01
1.379620e-01
1.001570e-01
3.663680e-01
2.938740e-01
2.302030e-01
1.753530e-01
1.293250e-01
4.351440e-01
3.533150e-01
2.804180e-01
2.164540e-01
1.614220e-01
5.060540e-02
3.484570e-02
2.372550e-02
1.724490e-02
1.540380e-02
7.391680e-02
5.391180e-02
3.990660e-02
3.190120e-02
2.989570e-02
1.001570e-01
7.525620e-02
5.772490e-02
4.756270e-02
4.476970e-02
1.293250e-01
9.887900e-02
7.718050e-02
6.422940e-02
6.002580e-02
1.614220e-01
1.247800e-01
9.827340e-02
8.190130e-02
7.566400e-02
1.540380e-02
1.392340e-02
1.332140e-02
1.359790e-02
1.475270e-02
2.989570e-02
2.841870e-02
2.781410e-02
2.808180e-02
2.922170e-02
4.476970e-02
4.290450e-02
4.203310e-02
4.215540e-02
4.327150e-02
6.002580e-02
5.738070e-02
5.597830e-02
5.581870e-02
5.690190e-02
7.566400e-02
7.184730e-02
6.964990e-02
6.907180e-02
7.011300e-02
1.475270e-02
1.399360e-02
1.255870e-02
1.044800e-02
7.661410e-03
2.922170e-02
2.847600e-02
2.702230e-02
2.486050e-02
2.199070e-02
4.327150e-02
4.246680e-02
4.094520e-02
3.870690e-02
3.575180e-02
5.690190e-02
5.596570e-02
5.432750e-02
5.198720e-02
4.894470e-02
7.011300e-02
6.897300e-02
6.716910e-02
6.470120e-02
6.156950e-02
9.604590e-02
1.011000e-01
1.061070e-01
1.110640e-01
1.159740e-01
9.458900e-02
9.913370e-02
1.036910e-01
1.082600e-01
1.128410e-01
9.299440e-02
9.716210e-02
1.013290e-01
1.054960e-01
1.096620e-01
9.126190e-02
9.518560e-02
9.902260e-02
1.027730e-01
1.064370e-01
8.939170e-02
9.320410e-02
9.677070e-02
1.000910e-01
1.031660e-01
1.159740e-01
1.197730e-01
1.221640e-01
1.231470e-01
1.227230e-01
1.128410e-01
1.167040e-01
1.194280e-01
1.210140e-01
1.214610e-01
1.096620e-01
1.133960e-01
1.162430e-01
1.182030e-01
1.192750e-01
1.064370e-01
1.098510e-01
1.126100e-01
1.147140e-01
1.161620e-01
1.031660e-01
1.060670e-01
1.085270e-01
1.105460e-01
1.121250e-01
1.227230e-01
1.214300e-01
1.202170e-01
1.190850e-01
1.180330e-01
1.214610e-01
1.210210e-01
1.205420e-01
1.200250e-01
1.194680e-01
1.192750e-01
1.195040e-01
1.196210e-01
1.196250e-01
1.195160e-01
1.161620e-01
1.168800e-01
1.174540e-01
1.178860e-01
1.181750e-01
1.121250e-01
1.131470e-01
1.140420e-01
1.148080e-01
1.154460e-01
1.180330e-01
1.174360e-01
1.173060e-01
1.176430e-01
1.184460e-01
1.194680e-01
1.192310e-01
1.193780e-01
1.199080e-01
1.208220e-01
1.195160e-01
1.196160e-01
1.200250e-01
1.207410e-01
1.217660e-01
1.181750e-01
1.185910e-01
1.192470e-01
1.201430e-01
1.212790e-01
1.154460e-01
1.161560e-01
1.170450e-01
1.181130e-01
1.193600e-01
1.184460e-01
1.196810e-01
1.214340e-01
1.237040e-01
1.264910e-01
1.208220e-01
1.221210e-01
1.238920e-01
1.261360e-01
1.288510e-01
1.217660e-01
1.231290e-01
1.249180e-01
1.271330e-01
1.297740e-01
1.212790e-01
1.227060e-01
1.245110e-01
1.266950e-01
1.292590e-01
1.193600e-01
1.208500e-01
1.226710e-01
1.248230e-01
1.273050e-01
1.264910e-01
1.297000e-01
1.334220e-01
1.376580e-01
1.424080e-01
1.288510e-01
1.319550e-01
1.355420e-01
1.396150e-01
1.441720e-01
1.297740e-01
1.327670e-01
1.362150e-01
1.401190e-01
1.444780e-01
1.292590e-01
1.321370e-01
1.354410e-01
1.391710e-01
1.433260e-01
1.273050e-01
1.300650e-01
1.332200e-01
1.367710e-01
1.407170e-01
1.424080e-01
1.475560e-01
1.533250e-01
1.597160e-01
1.667280e-01
1.441720e-01
1.490870e-01
1.545920e-01
1.606880e-01
1.673740e-01
1.444780e-01
1.491560e-01
1.543960e-01
1.601950e-01
1.665560e-01
1.433260e-01
1.477650e-01
1.527350e-01
1.582370e-01
1.642720e-01
1.407170e-01
1.449120e-01
1.496110e-01
1.548140e-01
1.605220e-01
1.667280e-01
1.741150e-01
1.823370e-01
1.913950e-01
2.012880e-01
1.673740e-01
1.743840e-01
1.822040e-01
1.908340e-01
2.002740e-01
1.665560e-01
1.731900e-01
1.806090e-01
1.888110e-01
1.977980e-01
1.642720e-01
1.705330e-01
1.775520e-01
1.853280e-01
1.938610e-01
1.605220e-01
1.664140e-01
1.730340e-01
1.803840e-01
1.884640e-01
2.012880e-01
2.114180e-01
2.228000e-01
2.354340e-01
2.493180e-01
2.002740e-01
2.098790e-01
2.207430e-01
2.328650e-01
2.462470e-01
1.977980e-01
2.068810e-01
2.172180e-01
2.288100e-01
2.416550e-01
1.938610e-01
2.024250e-01
2.122270e-01
2.232660e-01
2.355430e-01
1.884640e-01
1.965110e-01
2.057680e-01
2.162350e-01
2.279110e-01
2.493180e-01
2.632160e-01
2.789690e-01
2.965760e-01
3.160390e-01
2.462470e-01
2.594630e-01
2.746610e-01
2.918410e-01
3.110030e-01
2.416550e-01
2.541540e-01
2.687400e-01
2.854110e-01
3.041690e-01
2.355430e-01
2.472900e-01
2.612040e-01
2.772860e-01
2.955360e-01
2.279110e-01
2.388690e-01
2.520540e-01
2.674660e-01
2.851040e-01
3.160390e-01
3.361950e-01
3.583520e-01
3.825080e-01
4.086640e-01
3.110030e-01
3.304710e-01
3.522680e-01
3.763920e-01
4.028440e-01
3.041690e-01
3.227680e-01
3.440260e-01
3.679430e-01
3.945180e-01
2.955360e-01
3.130850e-01
3.336270e-01
3.571600e-01
3.836860e-01
2.851040e-01
3.014230e-01
3.210700e-01
3.440450e-01
3.703470e-01
4.086640e-01
4.395500e-01
4.709420e-01
5.028400e-01
5.352430e-01
4.028440e-01
4.340800e-01
4.661370e-01
4.990150e-01
5.327150e-01
3.945180e-01
4.257980e-01
4.581550e-01
4.915890e-01
5.261020e-01
3.836860e-01
4.147040e-01
4.469960e-01
4.805620e-01
5.154030e-01
3.703470e-01
4.007980e-01
4.326600e-01
4.659340e-01
5.006200e-01
5.352430e-01
5.778040e-01
6.175550e-01
6.544950e-01
6.886250e-01
5.327150e-01
5.784260e-01
6.211330e-01
6.608360e-01
6.975350e-01
5.261020e-01
5.746280e-01
6.198670e-01
6.618190e-01
7.004840e-01
5.154030e-01
5.664120e-01
6.137590e-01
6.574460e-01
6.974730e-01
5.006200e-01
5.537770e-01
6.028090e-01
6.477170e-01
6.885000e-01
6.886250e-01
7.243950e-01
7.542020e-01
7.780460e-01
7.959280e-01
6.975350e-01
7.379350e-01
7.716860e-01
7.987880e-01
8.192410e-01
7.004840e-01
7.451250e-01
7.825170e-01
8.126580e-01
8.355510e-01
6.974730e-01
7.459660e-01
7.866940e-01
8.196570e-01
8.448550e-01
6.885000e-01
7.404560e-01
7.842170e-01
8.197840e-01
8.471550e-01
7.959280e-01
7.949800e-01
7.860620e-01
7.691740e-01
7.443170e-01
8.192410e-01
8.194410e-01
8.126530e-01
7.988780e-01
7.781170e-01
8.355510e-01
8.367840e-01
8.316720e-01
8.202140e-01
8.024090e-01
8.448550e-01
8.470110e-01
8.431190e-01
8.331810e-01
8.171950e-01
8.471550e-01
8.501200e-01
8.469950e-01
8.377790e-01
8.224740e-01
7.443170e-01
6.859590e-01
6.149770e-01
5.313720e-01
4.351440e-01
7.781170e-01
7.285160e-01
6.649450e-01
5.874050e-01
4.958940e-01
8.024090e-01
7.586730e-01
7.012710e-01
6.302010e-01
5.454650e-01
8.171950e-01
7.764310e-01
7.239540e-01
6.597620e-01
5.838570e-01
8.224740e-01
7.817890e-01
7.329940e-01
6.760880e-01
6.110700e-01
4.351440e-01
3.533150e-01
2.804180e-01
2.164540e-01
1.614220e-01
4.958940e-01
4.081170e-01
3.283540e-01
2.566060e-01
1.928720e-01
5.454650e-01
4.554640e-01
3.717010e-01
2.941750e-01
2.228860e-01
5.838570e-01
4.953560e-01
4.104570e-01
3.291590e-01
2.514630e-01
6.110700e-01
5.277930e-01
4.446220e-01
3.615590e-01
2.786040e-01
1.614220e-01
1.247800e-01
9.827340e-02
8.190130e-02
7.566400e-02
1.928720e-01
1.511870e-01
1.202180e-01
9.996500e-02
9.042850e-02
2.228860e-01
1.769850e-01
1.421030e-01
1.182400e-01
1.053970e-01
2.514630e-01
2.021750e-01
1.639290e-01
1.367270e-01
1.205690e-01
2.786040e-01
2.267550e-01
1.856960e-01
1.554260e-01
1.359440e-01
7.566400e-02
7.184730e-02
6.964990e-02
6.907180e-02
7.011300e-02
9.042850e-02
8.485840e-02
8.146960e-02
8.026190e-02
8.123530e-02
1.053970e-01
9.773710e-02
9.285280e-02
9.074400e-02
9.141040e-02
1.205690e-01
1.104830e-01
1.038000e-01
1.005180e-01
1.006380e-01
1.359440e-01
1.230970e-01
1.143100e-01
1.095840e-01
1.089190e-01
7.011300e-02
6.897300e-02
6.716910e-02
6.470120e-02
6.156950e-02
8.123530e-02
7.994160e-02
7.799330e-02
7.539030e-02
7.213270e-02
9.141040e-02
8.984820e-02
8.767210e-02
8.488220e-02
8.147830e-02
1.006380e-01
9.869280e-02
9.620560e-02
9.317690e-02
8.960640e-02
1.089190e-01
1.064750e-01
1.035940e-01
1.002740e-01
9.651710e-02
8.939170e-02
9.320410e-02
9.677070e-02
1.000910e-01
1.031660e-01
8.740010e-02
9.094740e-02
9.421850e-02
9.721320e-02
9.993170e-02
8.530680e-02
8.858570e-02
9.157020e-02
9.426020e-02
9.665590e-02
8.311190e-02
8.611900e-02
8.882590e-02
9.123250e-02
9.333890e-02
8.081530e-02
8.354730e-02
8.598560e-02
8.813000e-02
8.998070e-02
1.031660e-01
1.060670e-01
1.085270e-01
1.105460e-01
1.121250e-01
9.993170e-02