<?xml version="1.0"?>
<VTKFile type="UnstructuredGrid" version="0.1" byte_order="LittleEndian" compressor="vtkZLibDataCompressor">
<UnstructuredGrid>
<Piece NumberOfPoints="10000" NumberOfCells="6400">
<Points>
<DataArray type="Float32" NumberOfComponents="3" format="ascii">
-3.360000e+00 0.000000e+00 0.000000e+00
-3.276000e+00 0.000000e+00 0.000000e+00
-3.192000e+00 0.000000e+00 0.000000e+00
-3.108000e+00 0.000000e+00 0.000000e+00
-3.024000e+00 0.000000e+00 0.000000e+00
-3.360000e+00 6.412500e-02 0.000000e+00
-3.276000e+00 6.412500e-02 0.000000e+00
-3.192000e+00 6.412500e-02 0.000000e+00
-3.108000e+00 6.412500e-02 0.000000e+00
-3.024000e+00 6.412500e-02 0.000000e+00
-3.360000e+00 1.282500e-01 0.000000e+00
-3.276000e+00 1.282500e-01 0.000000e+00
-3.192000e+00 1.282500e-01 0.000000e+00
-3.108000e+00 1.282500e-01 0.000000e+00
-3.024000e+00 1.282500e-01 0.000000e+00
-3.360000e+00 1.923750e-01 0.000000e+00
-3.276000e+00 1.923750e-01 0.000000e+00
-3.192000e+00 1.923750e-01 0.000000e+00
-3.108000e+00 1.923750e-01 0.000000e+00
-3.024000e+00 1.923750e-01 0.000000e+00
-3.360000e+00 2.565000e-01 0.000000e+00
-3.276000e+00 2.565000e-01 0.000000e+00
-3.192000e+00 2.565000e-01 0.000000e+00
-3.108000e+00 2.565000e-01 0.000000e+00
-3.024000e+00 2.565000e-01 0.000000e+00
-3.024000e+00 0.000000e+00 0.000000e+00
-2.940000e+00 0.000000e+00 0.000000e+00
-2.856000e+00 0.000000e+00 0.000000e+00
-2.772000e+00 0.000000e+00 0.000000e+00
-2.688000e+00 0.000000e+00 0.000000e+00
-3.024000e+00 6.412500e-02 0.000000e+00
-2.940000e+00 6.412500e-02 0.000000e+00
-2.856000e+00 6.412500e-02 0.000000e+00
-2.772000e+00 6.412500e-02 0.000000e+00
-2.688000e+00 6.412500e-02 0.000000e+00
-3.024000e+00 1.282500e-01 0.000000e+00
-2.940000e+00 1.282500e-01 0.000000e+00
-2.856000e+00 1.282500e-01 0.000000e+00
-2.772000e+00 1.282500e-01 0.000000e+00
-2.688000e+00 1.282500e-01 0.000000e+00
-3.024000e+00 1.923750e-01 0.000000e+00
-2.940000e+00 1.923750e-01 0.000000e+00
-2.856000e+00 1.923750e-01 0.000000e+00
-2.772000e+00 1.923750e-01 0.000000e+00
-2.688000e+00 1.923750e-01 0.000000e+00
-3.024000e+00 2.565000e-01 0.000000e+00
-2.940000e+00 2.565000e-01 0.000000e+00
-2.856000e+00 2.565000e-01 0.000000e+00
-2.772000e+00 2.565000e-01 0.000000e+00
-2.688000e+00 2.565000e-01 0.000000e+00
-2.688000e+00 0.000000e+00 0.000000e+00
-2.604000e+00 0.000000e+00 0.000000e+00
-2.520000e+00 0.000000e+00 0.000000e+00
-2.436000e+00 0.000000e+00 0.000000e+00
-2.352000e+00 0.000000e+00 0.000000e+00
-2.688000e+00 6.412500e-02 0.000000e+00
-2.604000e+00 6.412500e-02 0.000000e+00
-2.520000e+00 6.412500e-02 0.000000e+00
-2.436000e+00 6.412500e-02 0.000000e+00
-2.352000e+00 6.412500e-02 0.000000e+00
-2.688000e+00 1.282500e-01 0.000000e+00
-2.604000e+00 1.282500e-01 0.000000e+00
-2.520000e+00 1.282500e-01 0.000000e+00
-2.436000e+00 1.282500e-01 0.000000e+00
-2.352000e+00 1.282500e-01 0.000000e+00
-2.688000e+00 1.923750e-01 0.000000e+00
-2.604000e+00 1.923750e-01 0.000000e+00
-2.520000e+00 1.923750e-01 0.000000e+00
-2.436000e+00 1.923750e-01 0.000000e+00
-2.352000e+00 1.923750e-01 0.000000e+00
-2.688000e+00 2.565000e-01 0.000000e+00
-2.604000e+00 2.565000e-01 0.000000e+00
-2.520000e+00 2.565000e-01 0.000000e+00
-2.436000e+00 2.565000e-01 0.000000e+00
-2.352000e+00 2.565000e-01 0.000000e+00
-2.352000e+00 0.000000e+00 0.000000e+00
-2.268000e+00 0.000000e+00 0.000000e+00
-2.184000e+00 0.000000e+00 0.000000e+00
-2.100000e+00 0.000000e+00 0.000000e+00
-2.016000e+00 0.000000e+00 0.000000e+00
-2.352000e+00 6.412500e-02 0.000000e+00
-2.268000e+00 6.412500e-02 0.000000e+00
-2.184000e+00 6.412500e-02 0.000000e+00
-2.100000e+00 6.412500e-02 0.000000e+00
-2.016000e+00 6.412500e-02 0.000000e+00
-2.352000e+00 1.282500e-01 0.000000e+00
-2.268000e+00 1.282500e-01 0.000000e+00
-2.184000e+00 1.282500e-01 0.000000e+00
-2.100000e+00 1.282500e-01 0.000000e+00
-2.016000e+00 1.282500e-01 0.000000e+00
-2.352000e+00 1.923750e-01 0.000000e+00
-2.268000e+00 1.923750e-01 0.000000e+00
-2.184000e+00 1.923750e-01 0.000000e+00
-2.100000e+00 1.923750e-01 0.000000e+00
-2.016000e+00 1.923750e-01 0.000000e+00
-2.352000e+00 2.565000e-01 0.000000e+00
-2.268000e+00 2.565000e-01 0.000000e+00
-2.184000e+00 2.565000e-01 0.000000e+00
-2.100000e+00 2.565000e-01 0.000000e+00
-2.016000e+00 2.565000e-01 0.000000e+00
-2.016000e+00 0.000000e+00 0.000000e+00
-1.932000e+00 0.000000e+00 0.000000e+00
-1.848000e+00 0.000000e+00 0.000000e+00
-1.764000e+00 0.000000e+00 0.000000e+00
-1.680000e+00 0.000000e+00 0.000000e+00
-2.016000e+00 6.412500e-02 0.000000e+00
-1.932000e+00 6.412500e-02 0.000000e+00
-1.848000e+00 6.412500e-02 0.000000e+00
-1.764000e+00 6.412500e-02 0.000000e+00
-1.680000e+00 6.412500e-02 0.000000e+00
-2.016000e+00 1.282500e-01 0.000000e+00
-1.932000e+00 1.282500e-01 0.000000e+00
-1.848000e+00 1.282500e-01 0.000000e+00
-1.764000e+00 1.282500e-01 0.000000e+00
-1.680000e+00 1.282500e-01 0.000000e+00
-2.016000e+00 1.923750e-01 0.000000e+00
-1.932000e+00 1.923750e-01 0.000000e+00
-1.848000e+00 1.923750e-01 0.000000e+00
-1.764000e+00 1.923750e-01 0.000000e+00
-1.680000e+00 1.923750e-01 0.000000e+00
-2.016000e+00 2.565000e-01 0.000000e+00
-1.932000e+00 2.565000e-01 0.000000e+00
-1.848000e+00 2.565000e-01 0.000000e+00
-1.764000e+00 2.565000e-01 0.000000e+00
-1.680000e+00 2.565000e-01 0.000000e+00
-1.680000e+00 0.000000e+00 0.000000e+00
-1.596000e+00 0.000000e+00 0.000000e+00
-1.512000e+00 0.000000e+00 0.000000e+00
-1.428000e+00 0.000000e+00 0.000000e+00
-1.344000e+00 0.000000e+00 0.000000e+00
-1.680000e+00 6.412500e-02 0.000000e+00
-1.596000e+00 6.412500e-02 0.000000e+00
-1.512000e+00 6.412500e-02 0.000000e+00
-1.428000e+00 6.412500e-02 0.000000e+00
-1.344000e+00 6.412500e-02 0.000000e+00
-1.680000e+00 1.282500e-01 0.000000e+00
-1.596000e+00 1.282500e-01 0.000000e+00
-1.512000e+00 1.282500e-01 0.000000e+00
-1.428000e+00 1.282500e-01 0.000000e+00
-1.344000e+00 1.282500e-01 0.000000e+00
-1.680000e+00 1.923750e-01 0.000000e+00
-1.596000e+00 1.923750e-01 0.000000e+00
-1.512000e+00 1.923750e-01 0.000000e+00
-1.428000e+00 1.923750e-01 0.000000e+00
-1.344000e+00 1.923750e-01 0.000000e+00
-1.680000e+00 2.565000e-01 0.000000e+00
-1.596000e+00 2.565000e-01 0.000000e+00
-1.512000e+00 2.565000e-01 0.000000e+00
-1.428000e+00 2.565000e-01 0.000000e+00
-1.344000e+00 2.565000e-01 0.000000e+00
-1.344000e+00 0.000000e+00 0.000000e+00
-1.260000e+00 0.000000e+00 0.000000e+00
-1.176000e+00 0.000000e+00 0.000000e+00
-1.092000e+00 0.000000e+00 0.000000e+00
-1.008000e+00 0.000000e+00 0.000000e+00
-1.344000e+00 6.412500e-02 0.000000e+00
-1.260000e+00 6.412500e-02 0.000000e+00
-1.176000e+00 6.412500e-02 0.000000e+00
-1.092000e+00 6.412500e-02 0.000000e+00
-1.008000e+00 6.412500e-02 0.000000e+00
-1.344000e+00 1.282500e-01 0.000000e+00
-1.260000e+00 1.282500e-01 0.000000e+00
-1.176000e+00 1.282500e-01 0.000000e+00
-1.092000e+00 1.282500e-01 0.000000e+00
-1.008000e+00 1.282500e-01 0.000000e+00
-1.344000e+00 1.923750e-01 0.000000e+00
-1.260000e+00 1.923750e-01 0.000000e+00
-1.176000e+00 1.923750e-01 0.000000e+00
-1.092000e+00 1.923750e-01 0.000000e+00
-1.008000e+00 1.923750e-01 0.000000e+00
-1.344000e+00 2.565000e-01 0.000000e+00
-1.260000e+00 2.565000e-01 0.000000e+00
-1.176000e+00 2.565000e-01 0.000000e+00
-1.092000e+00 2.565000e-01 0.000000e+00
-1.008000e+00 2.565000e-01 0.000000e+00
-1.008000e+00 0.000000e+00 0.000000e+00
-9.240000e-01 0.000000e+00 0.000000e+00
-8.400000e-01 0.000000e+00 0.000000e+00
-7.560000e-01 0.000000e+00 0.000000e+00
-6.720000e-01 0.000000e+00 0.000000e+00
-1.008000e+00 6.412500e-02 0.000000e+00
-9.240000e-01 6.412500e-02 0.000000e+00
-8.400000e-01 6.412500e-02 0.000000e+00
-7.560000e-01 6.412500e-02 0.000000e+00
-6.720000e-01 6.412500e-02 0.000000e+00
-1.008000e+00 1.282500e-01 0.000000e+00
-9.240000e-01 1.282500e-01 0.000000e+00
-8.400000e-01 1.282500e-01 0.000000e+00
-7.560000e-01 1.282500e-01 0.000000e+00
-6.720000e-01 1.282500e-01 0.000000e+00
-1.008000e+00 1.923750e-01 0.000000e+00
-9.240000e-01 1.923750e-01 0.000000e+00
-8.400000e-01 1.923750e-01 0.000000e+00
-7.560000e-01 1.923750e-01 0.000000e+00
-6.720000e-01 1.923750e-01 0.000000e+00
-1.008000e+00 2.565000e-01 0.000000e+00
-9.240000e-01 2.565000e-01 0.000000e+00
-8.400000e-01 2.565000e-01 0.000000e+00
-7.560000e-01 2.565000e-01 0.000000e+00
-6.720000e-01 2.565000e-01 0.000000e+00
-6.720000e-01 0.000000e+00 0.000000e+00
-5.880000e-01 0.000000e+00 0.000000e+00
-5.040000e-01 0.000000e+00 0.000000e+00
-4.200000e-01 0.000000e+00 0.000000e+00
-3.360000e-01 0.000000e+00 0.000000e+00
-6.720000e-01 6.412500e-02 0.000000e+00
-5.880000e-01 6.412500e-02 0.000000e+00
-5.040000e-01 6.412500e-02 0.000000e+00
-4.200000e-01 6.412500e-02 0.000000e+00
-3.360000e-01 6.412500e-02 0.000000e+00
-6.720000e-01 1.282500e-01 0.000000e+00
-5.880000e-01 1.282500e-01 0.000000e+00
-5.040000e-01 1.282500e-01 0.000000e+00
-4.200000e-01 1.282500e-01 0.000000e+00
-3.360000e-01 1.282500e-01 0.000000e+00
-6.720000e-01 1.923750e-01 0.000000e+00
-5.880000e-01 1.923750e-01 0.000000e+00
-5.040000e-01 1.923750e-01 0.000000e+00
-4.200000e-01 1.923750e-01 0.000000e+00
-3.360000e-01 1.923750e-01 0.000000e+00
-6.720000e-01 2.565000e-01 0.000000e+00
-5.880000e-01 2.565000e-01 0.000000e+00
-5.040000e-01 2.565000e-01 0.000000e+00
-4.200000e-01 2.565000e-01 0.000000e+00
-3.360000e-01 2.565000e-01 0.000000e+00
-3.360000e-01 0.000000e+00 0.000000e+00
-2.520000e-01 0.000000e+00 0.000000e+00
-1.680000e-01 0.000000e+00 0.000000e+00
-8.400000e-02 0.000000e+00 0.000000e+00
-4.440890e-16 0.000000e+00 0.000000e+00
-3.360000e-01 6.412500e-02 0.000000e+00
-2.520000e-01 6.412500e-02 0.000000e+00
-1.680000e-01 6.412500e-02 0.000000e+00
-8.400000e-02 6.412500e-02 0.000000e+00
-4.440890e-16 6.412500e-02 0.000000e+00
-3.360000e-01 1.282500e-01 0.000000e+00
-2.520000e-01 1.282500e-01 0.000000e+00
-1.680000e-01 1.282500e-01 0.000000e+00
-8.400000e-02 1.282500e-01 0.000000e+00
-4.440890e-16 1.282500e-01 0.000000e+00
-3.360000e-01 1.923750e-01 0.000000e+00
-2.520000e-01 1.923750e-01 0.000000e+00
-1.680000e-01 1.923750e-01 0.000000e+00
[...]
<PointData>
<DataArray type="Float32" Name="V1" format="ascii">
0.000000e+00
0.000000e+00
0.000000e+00
0.000000e+00
0.000000e+00
6.347820e-02
5.968170e-02
5.540900e-02
5.066000e-02
4.543480e-02
1.013490e-01
9.780830e-02
9.300960e-02
8.695260e-02
7.963720e-02
1.136110e-01
1.143800e-01
1.128020e-01
1.088780e-01
1.026070e-01
1.002660e-01
1.093960e-01
1.147860e-01
1.164350e-01
1.143450e-01
0.000000e+00
0.000000e+00
0.000000e+00
0.000000e+00
0.000000e+00
4.543480e-02
3.970570e-02
3.534160e-02
3.234250e-02
3.070840e-02
7.963720e-02
7.131060e-02
6.479760e-02
6.009820e-02
5.721240e-02
1.026070e-01
9.481480e-02
8.836810e-02
8.326720e-02
7.951180e-02
1.143450e-01
1.102180e-01
1.060530e-01
1.018490e-01
9.760680e-02
0.000000e+00
0.000000e+00
0.000000e+00
0.000000e+00
0.000000e+00
3.070840e-02
2.928920e-02
2.816780e-02
2.734430e-02
2.681870e-02
5.721240e-02
5.479670e-02
5.293490e-02
5.162700e-02
5.087310e-02
7.951180e-02
7.652240e-02
7.430120e-02
7.284820e-02
7.216330e-02
9.760680e-02
9.446640e-02
9.226670e-02
9.100770e-02
9.068930e-02
0.000000e+00
0.000000e+00
0.000000e+00
0.000000e+00
0.000000e+00
2.681870e-02
2.643890e-02
2.636550e-02
2.659850e-02
2.713780e-02
5.087310e-02
5.039650e-02
5.042790e-02
5.096720e-02
5.201450e-02
7.216330e-02
7.187290e-02
7.218720e-02
7.310630e-02
7.463020e-02
9.068930e-02
9.086800e-02
9.164350e-02
9.301580e-02
9.498490e-02
0.000000e+00
0.000000e+00
0.000000e+00
0.000000e+00
0.000000e+00
2.713780e-02
2.782610e-02
2.871800e-02
2.981350e-02
3.111260e-02
5.201450e-02
5.334340e-02
5.504500e-02
5.711920e-02
5.956610e-02
7.463020e-02
7.655200e-02
7.898090e-02
8.191700e-02
8.536030e-02
9.498490e-02
9.745170e-02
1.005260e-01
1.042070e-01
1.084950e-01
0.000000e+00
0.000000e+00
0.000000e+00
0.000000e+00
0.000000e+00
3.111260e-02
3.261060e-02
3.443910e-02
3.659810e-02
3.908750e-02
5.956610e-02
6.236650e-02
6.573640e-02
6.967560e-02
7.418430e-02
8.536030e-02
8.926770e-02
9.389180e-02
9.923260e-02
1.052900e-01
1.084950e-01
1.133140e-01
1.189050e-01
1.252690e-01
1.324050e-01
0.000000e+00
0.000000e+00
0.000000e+00
0.000000e+00
0.000000e+00
3.908750e-02
4.183600e-02
4.511420e-02
4.892220e-02
5.326000e-02
7.418430e-02
7.914470e-02
8.500230e-02
9.175690e-02
9.940870e-02
1.052900e-01
1.119260e-01
1.196640e-01
1.285040e-01
1.384460e-01
1.324050e-01
1.401800e-01
1.491000e-01
1.591640e-01
1.703720e-01
0.000000e+00
0.000000e+00
0.000000e+00
0.000000e+00
0.000000e+00
5.326000e-02
5.786360e-02
6.338930e-02
6.983730e-02
7.720740e-02
9.940870e-02
1.075120e-01
1.171390e-01
1.282910e-01
1.409670e-01
1.384460e-01
1.489450e-01
1.612500e-01
1.753610e-01
1.912780e-01
1.703720e-01
1.821630e-01
1.957220e-01
2.110480e-01
2.281420e-01
0.000000e+00
0.000000e+00
0.000000e+00
0.000000e+00
0.000000e+00
7.720740e-02
8.468640e-02
9.362090e-02
1.040110e-01
1.158570e-01
1.409670e-01
1.538400e-01
1.690690e-01
1.866530e-01
2.065930e-01
1.912780e-01
2.074600e-01
2.263430e-01
2.479260e-01
2.722100e-01
2.281420e-01
2.455480e-01
2.654440e-01
2.878300e-01
3.127060e-01
0.000000e+00
0.000000e+00
0.000000e+00
0.000000e+00
0.000000e+00
1.158570e-01
1.279380e-01
1.414530e-01
1.564020e-01
1.727840e-01
2.065930e-01
2.270420e-01
2.497790e-01
2.748040e-01
3.021160e-01
2.722100e-01
2.973130e-01
3.249780e-01
3.552060e-01
3.879950e-01
3.127060e-01
3.387490e-01
3.670500e-01
3.976080e-01
4.304230e-01
0.000000e+00
0.000000e+00
0.000000e+00
0.000000e+00
0.000000e+00
1.727840e-01
1.913910e-01
2.093650e-01
2.267060e-01
2.434140e-01
3.021160e-01
3.333240e-01
3.636780e-01
3.931760e-01
4.218180e-01
3.879950e-01
4.257990e-01
4.629360e-01
4.994070e-01
5.352120e-01
4.304230e-01
4.688160e-01
5.071420e-01
5.454020e-01
5.835950e-01
0.000000e+00
0.000000e+00
0.000000e+00
0.000000e+00
0.000000e+00
2.434140e-01
2.641720e-01
2.803770e-01
2.920280e-01
2.991270e-01
4.218180e-01
4.574220e-01
4.862930e-01
5.084320e-01
5.238390e-01
5.352120e-01
5.797500e-01
6.177500e-01
6.492120e-01
6.741360e-01
5.835950e-01
6.311560e-01
6.747460e-01
7.143670e-01
7.500180e-01
0.000000e+00
0.000000e+00
0.000000e+00
0.000000e+00
0.000000e+00
2.991270e-01
3.015960e-01
2.979800e-01
2.882790e-01
2.724920e-01
5.238390e-01
5.325760e-01
5.315970e-01
5.209010e-01
5.004890e-01
6.741360e-01
6.929400e-01
7.008510e-01
6.978680e-01
6.839930e-01
7.500180e-01
7.826870e-01
8.057410e-01
8.191790e-01
8.230020e-01
0.000000e+00
0.000000e+00
0.000000e+00
0.000000e+00
0.000000e+00
2.724920e-01
2.405560e-01
2.088510e-01
1.773740e-01
1.461280e-01
5.004890e-01
4.531090e-01
4.034420e-01
3.514890e-01
2.972480e-01
6.839930e-01
6.376580e-01
5.837740e-01
5.223420e-01
4.533620e-01
8.230020e-01
7.942020e-01
7.498470e-01
6.899360e-01
6.144690e-01
0.000000e+00
0.000000e+00
0.000000e+00
0.000000e+00
0.000000e+00
1.461280e-01
1.173840e-01
9.140750e-02
6.819790e-02
4.775530e-02
2.972480e-01
2.430060e-01
1.928520e-01
1.467860e-01
1.048080e-01
4.533620e-01
3.768660e-01
3.043330e-01
2.357640e-01
1.711590e-01
6.144690e-01
5.189630e-01
4.258510e-01
3.351320e-01
2.468060e-01
0.000000e+00
0.000000e+00
0.000000e+00
0.000000e+00
0.000000e+00
4.775530e-02
3.457510e-02
2.185340e-02
9.590160e-03
-2.214590e-03
1.048080e-01
7.742910e-02
5.206870e-02
2.872710e-02
7.404200e-03
1.711590e-01
1.285620e-01
9.064590e-02
5.741080e-02
2.885640e-02
2.468060e-01
1.879730e-01
1.375850e-01
9.564120e-02
6.214190e-02
0.000000e+00
0.000000e+00
0.000000e+00
0.000000e+00
0.000000e+00
-2.214590e-03
-9.829090e-03
-1.380330e-02
-1.413720e-02
-1.083080e-02
7.404200e-03
-6.518850e-03
-1.389150e-02
-1.471380e-02
-8.985670e-03
2.885640e-02
9.930710e-03
-2.646800e-04
-1.729830e-03
5.535280e-03
6.214190e-02
3.951960e-02
2.707720e-02
2.481470e-02
3.273210e-02
0.000000e+00
0.000000e+00
0.000000e+00
0.000000e+00
0.000000e+00
-1.083080e-02
-9.258410e-03
-6.963620e-03
-3.946400e-03
-2.067400e-04
-8.985670e-03
-6.065120e-03
-2.128940e-03
2.822860e-03
8.790300e-03
5.535280e-03
9.579870e-03
1.450400e-02
2.030780e-02
2.699110e-02
3.273210e-02
3.767660e-02
4.293530e-02
4.850840e-02
5.439570e-02
0.000000e+00
0.000000e+00
0.000000e+00
0.000000e+00
0.000000e+00
-2.067400e-04
2.343220e-03
4.323040e-03
5.732740e-03
6.572300e-03
8.790300e-03
1.278920e-02
1.580600e-02
1.784080e-02
1.889340e-02
2.699110e-02
3.133790e-02
3.444890e-02
3.632410e-02
3.696340e-02
5.439570e-02
5.798940e-02
6.025170e-02
6.118260e-02
6.078220e-02
0.000000e+00
0.000000e+00
0.000000e+00
0.000000e+00
0.000000e+00
6.572300e-03
7.691990e-03
7.445090e-03
5.831600e-03
2.851520e-03
1.889340e-02
2.020390e-02
1.957510e-02
1.700710e-02
1.250000e-02
3.696340e-02
3.753560e-02
3.639000e-02
3.352660e-02
2.894530e-02
6.078220e-02
5.968730e-02
5.788980e-02
5.539000e-02
5.218760e-02
1.002660e-01
1.093960e-01
1.147860e-01
1.164350e-01
1.143450e-01
9.945850e-02
1.077930e-01
1.137450e-01
1.173130e-01
1.184990e-01
9.848610e-02
1.058460e-01
1.118790e-01
1.165840e-01
1.199620e-01
9.734850e-02
1.035540e-01
1.091870e-01
1.142470e-01
1.187340e-01
9.604590e-02
1.009190e-01
1.056710e-01
1.103030e-01
1.148150e-01
1.143450e-01
1.102180e-01
1.060530e-01
1.018490e-01
9.760680e-02
1.184990e-01
1.172460e-01
1.153490e-01
1.128080e-01
1.096230e-01
1.199620e-01
1.209280e-01
1.208690e-01
1.197860e-01
1.176790e-01
1.187340e-01
1.212640e-01
1.226140e-01
1.227830e-01
1.217730e-01
1.148150e-01
1.182550e-01
1.205830e-01
1.218000e-01
1.219060e-01
9.760680e-02
9.446640e-02
9.226670e-02
9.100770e-02
9.068930e-02
1.096230e-01
1.069970e-01
1.052140e-01
1.042740e-01
1.041780e-01
1.176790e-01
1.156980e-01
1.144220e-01
1.138500e-01
1.139820e-01
1.217730e-01
1.205700e-01
1.198910e-01
1.197350e-01
1.201030e-01
1.219060e-01
1.216130e-01
1.216210e-01
1.219290e-01
1.225390e-01
9.068930e-02
9.086800e-02
9.164350e-02
9.301580e-02
9.498490e-02
1.041780e-01
1.046590e-01
1.057410e-01
1.074240e-01
1.097090e-01
1.139820e-01
1.147200e-01
1.160440e-01
1.179520e-01
1.204450e-01
1.201030e-01
1.210540e-01
1.225530e-01
1.246000e-01
1.271950e-01
1.225390e-01
1.236580e-01
1.252680e-01
1.273670e-01
1.299580e-01
9.498490e-02
9.745170e-02
1.005260e-01
1.042070e-01
1.084950e-01
1.097090e-01
1.124880e-01
1.158980e-01
1.199400e-01
1.246130e-01
1.204450e-01
1.234190e-01
1.270230e-01
1.312590e-01
1.361270e-01
1.271950e-01
1.302450e-01
1.339010e-01
1.381650e-01
1.430350e-01
1.299580e-01
1.329650e-01
1.365310e-01
1.406560e-01
1.453380e-01
1.084950e-01
1.133140e-01
1.189050e-01
1.252690e-01
1.324050e-01
1.246130e-01
1.298250e-01
1.358080e-01
1.425630e-01
1.500890e-01
1.361270e-01
1.415210e-01
1.476670e-01
1.545660e-01
1.622180e-01
1.430350e-01
1.484020e-01
1.544830e-01
1.612800e-01
1.687910e-01
1.453380e-01
1.504670e-01
1.562560e-01
1.627030e-01
1.698100e-01
1.324050e-01
1.401800e-01
1.491000e-01
1.591640e-01
1.703720e-01
1.500890e-01
1.582000e-01
1.674270e-01
1.777710e-01
1.892300e-01
1.622180e-01
1.703950e-01
1.796440e-01
1.899640e-01
2.013570e-01
1.687910e-01
1.767640e-01
1.857490e-01
1.957450e-01
2.067520e-01
1.698100e-01
1.773090e-01
1.857430e-01
1.951120e-01
2.054150e-01
1.703720e-01
1.821630e-01
1.957220e-01
2.110480e-01
2.281420e-01
1.892300e-01
2.011310e-01
2.147570e-01
2.301080e-01
2.471840e-01
2.013570e-01
2.130650e-01
2.264470e-01
2.415040e-01
2.582350e-01
2.067520e-01
2.179650e-01
2.307930e-01
2.452360e-01
2.612950e-01
2.054150e-01
2.158310e-01
2.277940e-01
2.413050e-01
2.563650e-01
2.281420e-01
2.455480e-01
2.654440e-01
2.878300e-01
3.127060e-01
2.471840e-01
2.642850e-01
2.839120e-01
3.060660e-01
3.307450e-01
2.582350e-01
2.747220e-01
2.937840e-01
3.154230e-01
3.396370e-01
2.612950e-01
2.768580e-01
2.950590e-01
3.159010e-01
3.393810e-01
2.563650e-01
2.706930e-01
2.877380e-01
3.074990e-01
3.299770e-01
3.127060e-01
3.387490e-01
3.670500e-01
3.976080e-01
4.304230e-01
3.307450e-01
3.561660e-01
3.841430e-01
4.146780e-01
4.477700e-01
3.396370e-01
3.641220e-01
3.914770e-01
4.217020e-01
4.547970e-01
3.393810e-01
3.626180e-01
3.890510e-01
4.186790e-01
4.515030e-01
3.299770e-01
3.516550e-01
3.768660e-01
4.056110e-01
4.378900e-01
4.304230e-01
4.688160e-01
5.071420e-01
5.454020e-01
5.835950e-01
4.477700e-01
4.865270e-01
5.256790e-01
5.652260e-01
6.051680e-01
4.547970e-01
4.935440e-01
5.331120e-01
5.735010e-01
6.147120e-01
4.515030e-01
4.898650e-01
5.294390e-01
5.702260e-01
6.122260e-01
4.378900e-01
4.754910e-01
5.146620e-01
5.554020e-01
5.977110e-01
5.835950e-01
6.311560e-01
6.747460e-01
7.143670e-01
7.500180e-01
6.051680e-01
6.565740e-01
7.042920e-01
7.483210e-01
7.886610e-01
6.147120e-01
6.696270e-01
7.210450e-01
7.689690e-01
8.133960e-01
6.122260e-01
6.703130e-01
7.250080e-01
7.763100e-01
8.242210e-01
5.977110e-01
6.586340e-01
7.161790e-01
7.703470e-01
8.211370e-01
7.500180e-01
7.826870e-01
8.057410e-01
8.191790e-01
8.230020e-01
7.886610e-01
8.296610e-01
8.618150e-01
8.851220e-01
8.995830e-01
8.133960e-01
8.617740e-01
9.017420e-01
9.332980e-01
9.564430e-01
8.242210e-01
8.790270e-01
9.255220e-01
9.637070e-01
9.935810e-01
8.211370e-01
8.814190e-01
9.331560e-01
9.763490e-01
1.011000e+00
8.230020e-01
7.942020e-01
7.498470e-01
6.899360e-01
6.144690e-01
8.995830e-01
8.856100e-01
8.564910e-01
8.122260e-01
7.528150e-01
9.564430e-01
9.533210e-01
9.363020e-01
9.053850e-01
8.605710e-01
9.935810e-01
9.973370e-01
9.892810e-01
9.694130e-01
9.377340e-01
1.011000e+00
1.017660e+00
1.015430e+00
1.004310e+00
9.843070e-01
6.144690e-01
5.189630e-01
4.258510e-01
3.351320e-01
2.468060e-01
7.528150e-01
6.566710e-01
5.559550e-01
4.506660e-01
3.408050e-01
8.605710e-01
7.705200e-01
6.696900e-01
5.580790e-01
4.356890e-01
9.377340e-01
8.605100e-01
7.670560e-01
6.573720e-01
5.314590e-01
9.843070e-01
9.266410e-01
8.480540e-01
7.485450e-01
6.281130e-01
2.468060e-01
1.879730e-01
1.375850e-01
9.564120e-02
6.214190e-02
3.408050e-01
2.657360e-01
2.015700e-01
1.483070e-01
1.059470e-01
4.356890e-01
3.473360e-01
2.709790e-01
2.066190e-01
1.542550e-01
5.314590e-01
4.327730e-01
3.458120e-01
2.705770e-01
2.070660e-01
6.281130e-01
5.220480e-01
4.260700e-01
3.401810e-01
2.643800e-01
6.214190e-02
3.951960e-02
2.707720e-02
2.481470e-02
3.273210e-02
1.059470e-01
7.583260e-02
5.806640e-02
5.264840e-02
5.957880e-02
1.542550e-01
1.160120e-01
9.202760e-02
8.230340e-02
8.683910e-02
2.070660e-01
1.600560e-01
1.289610e-01
1.137800e-01
1.145130e-01
2.643800e-01
2.079670e-01
1.688660e-01
1.470770e-01
1.426000e-01
3.273210e-02
3.767660e-02
4.293530e-02
4.850840e-02
5.439570e-02
5.957880e-02
6.434630e-02
6.920030e-02
7.414080e-02
7.916790e-02
8.683910e-02
9.034020e-02
9.396390e-02
9.771040e-02
1.015800e-01
1.145130e-01
1.156580e-01
1.172260e-01
1.192170e-01
1.216310e-01
1.426000e-01
1.403000e-01
1.389870e-01
1.386610e-01
1.393220e-01
5.439570e-02
5.798940e-02
6.025170e-02
6.118260e-02
6.078220e-02
7.916790e-02
8.169760e-02
8.285400e-02
8.263720e-02
8.104710e-02
1.015800e-01
1.028800e-01
1.028230e-01
1.014080e-01
9.863530e-02
1.216310e-01
1.215360e-01
1.201570e-01
1.174940e-01
1.135470e-01
1.393220e-01
1.376670e-01
1.348590e-01
1.308970e-01
1.257810e-01
6.078220e-02
5.968730e-02
5.788980e-02
5.539000e-02
5.218760e-02
8.104710e-02
7.923320e-02
7.679500e-02
7.373270e-02
7.004610e-02
9.863530e-02
9.607950e-02
9.300180e-02
8.940220e-02
8.528070e-02
1.135470e-01
1.102260e-01
1.065100e-01
1.023990e-01
9.789130e-02
1.257810e-01
1.216740e-01
1.173200e-01
1.127220e-01
1.078780e-01
9.604590e-02
1.009190e-01
1.056710e-01
1.103030e-01
1.148150e-01
9.458900e-02
9.894020e-02
1.032260e-01
1.074460e-01
1.116000e-01
9.299440e-02
9.696270e-02
1.008520e-01
1.046630e-01
1.083960e-01
9.126190e-02
9.498590e-02
9.855080e-02
1.019570e-01
1.052030e-01
8.939170e-02
9.301010e-02
9.632130e-02
9.932540e-02
1.020220e-01
1.148150e-01
1.182550e-01
1.205830e-01
1.218000e-01
1.219060e-01
1.116000e-01
1.150440e-01
1.176120e-01
1.193070e-01
1.201260e-01
1.083960e-01
1.116860e-01
1.143240e-01
1.163100e-01
1.176430e-01
1.052030e-01
1.081830e-01
1.107180e-01
1.128100e-01
1.144570e-01
1.020220e-01
1.045340e-01
1.067950e-01
1.088060e-01
1.105680e-01
1.219060e-01
1.216130e-01
1.216210e-01
1.219290e-01
1.225390e-01
1.201260e-01
1.204980e-01
1.210460e-01
1.217700e-01
1.226700e-01
1.176430e-01
1.185380e-01
1.195200e-01
1.205890e-01
1.217450e-01
1.144570e-01
1.157350e-01
1.170450e-01
1.183880e-01
1.197650e-01
1.105680e-01
1.120860e-01
1.136190e-01
1.151670e-01
1.167300e-01
1.225390e-01
1.236580e-01
1.252680e-01
1.273670e-01
1.299580e-01
1.226700e-01
1.239680e-01
1.256940e-01
1.278480e-01
1.304310e-01
1.217450e-01
1.232050e-01
1.250340e-01
1.272330e-01
1.298020e-01
1.197650e-01
1.213700e-01
1.232890e-01
1.255230e-01
1.280720e-01
1.167300e-01
1.184620e-01
1.204580e-01
1.227170e-01
1.252390e-01
1.299580e-01
1.329650e-01
1.365310e-01
1.406560e-01
1.453380e-01
1.304310e-01
1.333920e-01
1.368710e-01
1.408660e-01
1.453780e-01
1.298020e-01
1.327110e-01
1.360960e-01
1.399560e-01
1.442910e-01
1.280720e-01
1.309220e-01
1.342070e-01
1.379260e-01
1.420780e-01
1.252390e-01
1.280240e-01
1.312030e-01
1.347740e-01
1.387390e-01
1.453380e-01
1.504670e-01
1.562560e-01
1.627030e-01
1.698100e-01
1.453780e-01
1.502880e-01
1.558220e-01
1.619780e-01
1.687580e-01
1.442910e-01
1.489770e-01
1.542500e-01
1.601100e-01
1.665580e-01
1.420780e-01
1.465350e-01
1.515420e-01
1.571000e-01
1.632090e-01
1.387390e-01
1.429610e-01
1.476970e-01
1.529470e-01
1.587110e-01
1.698100e-01
1.773090e-01
1.857430e-01
1.951120e-01
2.054150e-01
1.687580e-01
1.758740e-01
1.838830e-01
1.927870e-01
2.025850e-01
1.665580e-01
1.732840e-01
1.808600e-01
1.892870e-01
1.985640e-01
1.632090e-01
1.695390e-01
1.766730e-01
1.846110e-01
1.933530e-01
1.587110e-01
1.646400e-01
1.713230e-01
1.787590e-01
1.869500e-01
2.054150e-01
2.158310e-01
2.277940e-01
2.413050e-01
2.563650e-01
2.025850e-01
2.124240e-01
2.237790e-01
2.366490e-01
2.510360e-01
1.985640e-01
2.078090e-01
2.185210e-01
2.307000e-01
2.443460e-01
1.933530e-01
2.019860e-01
2.120210e-01
2.234580e-01
2.362960e-01
1.869500e-01
1.949540e-01
2.042780e-01
2.149220e-01
2.268860e-01
2.563650e-01
2.706930e-01
2.877380e-01
3.074990e-01
3.299770e-01
2.510360e-01
2.644550e-01
2.807020e-01
2.997760e-01
3.216770e-01
2.443460e-01
2.568040e-01
2.721440e-01
2.903650e-01
3.114670e-01
2.362960e-01
2.477400e-01
2.620630e-01
2.792650e-01
2.993470e-01
2.268860e-01
2.372620e-01
2.504590e-01
2.664770e-01
2.853170e-01
3.299770e-01
3.516550e-01
3.768660e-01
4.056110e-01
4.378900e-01
3.216770e-01
3.419780e-01
3.662100e-01
3.943750e-01
4.264720e-01
3.114670e-01
3.300430e-01
3.529630e-01
3.802240e-01
4.118290e-01
2.993470e-01
3.158520e-01
3.371220e-01
3.631590e-01
3.939610e-01
2.853170e-01
2.994020e-01
3.186900e-01
3.431790e-01
3.728700e-01
4.378900e-01
4.754910e-01
5.146620e-01
5.554020e-01
5.977110e-01
4.264720e-01
4.632330e-01
5.018810e-01
5.424150e-01
5.848370e-01
4.118290e-01
4.469610e-01
4.842280e-01
5.236280e-01
5.651630e-01
3.939610e-01
4.266760e-01
4.617020e-01
4.990400e-01
5.386910e-01
3.728700e-01
4.023760e-01
4.343040e-01
4.686510e-01
5.054190e-01
5.977110e-01
6.586340e-01
7.161790e-01
7.703470e-01
8.211370e-01
5.848370e-01
6.489930e-01
7.091930e-01
7.654380e-01
8.177280e-01
5.651630e-01
6.314020e-01
6.927320e-01
7.491520e-01
8.006630e-01
5.386910e-01
6.058620e-01
6.667950e-01
7.214890e-01
7.699440e-01
5.054190e-01
5.723730e-01
6.313820e-01
6.824480e-01
7.255700e-01
8.211370e-01
8.814190e-01
9.331560e-01
9.763490e-01
1.011000e+00
8.177280e-01
8.842360e-01
9.413780e-01
9.891560e-01
1.027570e+00
8.006630e-01
8.715300e-01
9.326050e-01
9.838890e-01
1.025380e+00
7.699440e-01
8.433010e-01
9.068350e-01
9.605470e-01
1.004440e+00
7.255700e-01
7.995500e-01
8.640700e-01
9.191310e-01
9.647310e-01
1.011000e+00
1.017660e+00
1.015430e+00
1.004310e+00
9.843070e-01
1.027570e+00
1.036340e+00
1.036600e+00
1.028370e+00
1.011620e+00
1.025380e+00
1.036170e+00
1.039320e+00
1.034810e+00
1.022650e+00
1.004440e+00
1.017160e+00
1.023560e+00
1.023640e+00
1.017410e+00
9.647310e-01
9.792950e-01
9.893400e-01
9.948680e-01
9.958770e-01
9.843070e-01
9.266410e-01
8.480540e-01
7.485450e-01
6.281130e-01
1.011620e+00
9.620210e-01
8.938630e-01
8.071470e-01
7.018730e-01
1.022650e+00
9.788790e-01
9.198290e-01
8.455050e-01
7.559050e-01
1.017410e+00
9.772170e-01
9.259540e-01
8.636180e-01
7.902100e-01
9.958770e-01
9.570330e-01
9.122370e-01
8.614880e-01
8.047860e-01
6.281130e-01
5.220480e-01
4.260700e-01
3.401810e-01
2.643800e-01
7.018730e-01
5.952340e-01
4.958190e-01
4.036300e-01
3.186650e-01
7.559050e-01
6.530990e-01
5.540490e-01
4.587560e-01
3.672180e-01
7.902100e-01
6.956440e-01
6.007610e-01
5.055600e-01
4.100410e-01
8.047860e-01
7.228690e-01
6.359540e-01
5.440420e-01
4.471320e-01
2.643800e-01
2.079670e-01
1.688660e-01
1.470770e-01
1.426000e-01
3.186650e-01
2.575290e-01
2.127530e-01
1.843370e-01
1.722820e-01
3.672180e-01
3.032870e-01
2.543520e-01
2.204120e-01
2.014680e-01
4.100410e-01
3.452430e-01
2.936630e-01
2.553020e-01
2.301590e-01
4.471320e-01
3.833950e-01
3.306860e-01
2.890070e-01
2.583560e-01
1.426000e-01
1.403000e-01
1.389870e-01
1.386610e-01
1.393220e-01
1.722820e-01
1.646620e-01
1.591400e-01
1.557160e-01
1.543900e-01
2.014680e-01
1.882930e-01
1.782730e-01
1.714060e-01
1.676940e-01
2.301590e-01
2.111950e-01
1.963860e-01
1.857320e-01
1.792340e-01
2.583560e-01
2.333670e-01
2.134800e-01
1.986940e-01
1.890100e-01
1.393220e-01
1.376670e-01
1.348590e-01
1.308970e-01
1.257810e-01
1.543900e-01
1.513250e-01
1.471550e-01
1.418790e-01
1.354980e-01
1.676940e-01
1.631490e-01
1.576050e-01
1.510600e-01
1.435160e-01
1.792340e-01
1.731390e-01
1.662070e-01
1.584390e-01
1.498350e-01
1.890100e-01
1.812940e-01
1.729630e-01
1.640170e-01
1.544560e-01
1.257810e-01
1.216740e-01
1.173200e-01
1.127220e-01
1.078780e-01
1.354980e-01
1.304400e-01
1.254250e-01
1.204530e-01
1.155230e-01
1.435160e-01
1.375620e-01
1.319370e-01
1.266400e-01
1.216710e-01
1.498350e-01
1.430390e-01
1.368550e-01
1.312830e-01
1.263230e-01
1.544560e-01
1.468700e-01
1.401790e-01
1.343820e-01
1.294790e-01
8.939170e-02
9.301010e-02
9.632130e-02
9.932540e-02
1.020220e-01
8.740010e-02
9.075890e-02
9.379830e-02
9.651830e-02
9.891890e-02
8.530680e-02
8.840400e-02
9.118250e-02
9.364250e-02
9.578390e-02
8.311190e-02
8.594520e-02
8.847390e-02
9.069800e-02
9.261730e-02
8.081530e-02
8.338280e-02
8.567260e-02
8.768470e-02
8.941920e-02
1.020220e-01
1.045340e-01
1.067950e-01
1.088060e-01
1.105680e-01
9.891890e-02