<?xml version="1.0"?>
<VTKFile type="UnstructuredGrid" version="0.1" byte_order="LittleEndian" compressor="vtkZLibDataCompressor">
<UnstructuredGrid>
<Piece NumberOfPoints="10000" NumberOfCells="6400">
<Points>
<DataArray type="Float32" NumberOfComponents="3" format="ascii">
-3.360000e+00 0.000000e+00 0.000000e+00
-3.276000e+00 0.000000e+00 0.000000e+00
-3.192000e+00 0.000000e+00 0.000000e+00
-3.108000e+00 0.000000e+00 0.000000e+00
-3.024000e+00 0.000000e+00 0.000000e+00
-3.360000e+00 6.412500e-02 0.000000e+00
-3.276000e+00 6.412500e-02 0.000000e+00
-3.192000e+00 6.412500e-02 0.000000e+00
-3.108000e+00 6.412500e-02 0.000000e+00
-3.024000e+00 6.412500e-02 0.000000e+00
-3.360000e+00 1.282500e-01 0.000000e+00
-3.276000e+00 1.282500e-01 0.000000e+00
-3.192000e+00 1.282500e-01 0.000000e+00
-3.108000e+00 1.282500e-01 0.000000e+00
-3.024000e+00 1.282500e-01 0.000000e+00
-3.360000e+00 1.923750e-01 0.000000e+00
-3.276000e+00 1.923750e-01 0.000000e+00
-3.192000e+00 1.923750e-01 0.000000e+00
-3.108000e+00 1.923750e-01 0.000000e+00
-3.024000e+00 1.923750e-01 0.000000e+00
-3.360000e+00 2.565000e-01 0.000000e+00
-3.276000e+00 2.565000e-01 0.000000e+00
-3.192000e+00 2.565000e-01 0.000000e+00
-3.108000e+00 2.565000e-01 0.000000e+00
-3.024000e+00 2.565000e-01 0.000000e+00
-3.024000e+00 0.000000e+00 0.000000e+00
-2.940000e+00 0.000000e+00 0.000000e+00
-2.856000e+00 0.000000e+00 0.000000e+00
-2.772000e+00 0.000000e+00 0.000000e+00
-2.688000e+00 0.000000e+00 0.000000e+00
-3.024000e+00 6.412500e-02 0.000000e+00
-2.940000e+00 6.412500e-02 0.000000e+00
-2.856000e+00 6.412500e-02 0.000000e+00
-2.772000e+00 6.412500e-02 0.000000e+00
-2.688000e+00 6.412500e-02 0.000000e+00
-3.024000e+00 1.282500e-01 0.000000e+00
-2.940000e+00 1.282500e-01 0.000000e+00
-2.856000e+00 1.282500e-01 0.000000e+00
-2.772000e+00 1.282500e-01 0.000000e+00
-2.688000e+00 1.282500e-01 0.000000e+00
-3.024000e+00 1.923750e-01 0.000000e+00
-2.940000e+00 1.923750e-01 0.000000e+00
-2.856000e+00 1.923750e-01 0.000000e+00
-2.772000e+00 1.923750e-01 0.000000e+00
-2.688000e+00 1.923750e-01 0.000000e+00
-3.024000e+00 2.565000e-01 0.000000e+00
-2.940000e+00 2.565000e-01 0.000000e+00
-2.856000e+00 2.565000e-01 0.000000e+00
-2.772000e+00 2.565000e-01 0.000000e+00
-2.688000e+00 2.565000e-01 0.000000e+00
-2.688000e+00 0.000000e+00 0.000000e+00
-2.604000e+00 0.000000e+00 0.000000e+00
-2.520000e+00 0.000000e+00 0.000000e+00
-2.436000e+00 0.000000e+00 0.000000e+00
-2.352000e+00 0.000000e+00 0.000000e+00
-2.688000e+00 6.412500e-02 0.000000e+00
-2.604000e+00 6.412500e-02 0.000000e+00
-2.520000e+00 6.412500e-02 0.000000e+00
-2.436000e+00 6.412500e-02 0.000000e+00
-2.352000e+00 6.412500e-02 0.000000e+00
-2.688000e+00 1.282500e-01 0.000000e+00
-2.604000e+00 1.282500e-01 0.000000e+00
-2.520000e+00 1.282500e-01 0.000000e+00
-2.436000e+00 1.282500e-01 0.000000e+00
-2.352000e+00 1.282500e-01 0.000000e+00
-2.688000e+00 1.923750e-01 0.000000e+00
-2.604000e+00 1.923750e-01 0.000000e+00
-2.520000e+00 1.923750e-01 0.000000e+00
-2.436000e+00 1.923750e-01 0.000000e+00
-2.352000e+00 1.923750e-01 0.000000e+00
-2.688000e+00 2.565000e-01 0.000000e+00
-2.604000e+00 2.565000e-01 0.000000e+00
-2.520000e+00 2.565000e-01 0.000000e+00
-2.436000e+00 2.565000e-01 0.000000e+00
-2.352000e+00 2.565000e-01 0.000000e+00
-2.352000e+00 0.000000e+00 0.000000e+00
-2.268000e+00 0.000000e+00 0.000000e+00
-2.184000e+00 0.000000e+00 0.000000e+00
-2.100000e+00 0.000000e+00 0.000000e+00
-2.016000e+00 0.000000e+00 0.000000e+00
-2.352000e+00 6.412500e-02 0.000000e+00
-2.268000e+00 6.412500e-02 0.000000e+00
-2.184000e+00 6.412500e-02 0.000000e+00
-2.100000e+00 6.412500e-02 0.000000e+00
-2.016000e+00 6.412500e-02 0.000000e+00
-2.352000e+00 1.282500e-01 0.000000e+00
-2.268000e+00 1.282500e-01 0.000000e+00
-2.184000e+00 1.282500e-01 0.000000e+00
-2.100000e+00 1.282500e-01 0.000000e+00
-2.016000e+00 1.282500e-01 0.000000e+00
-2.352000e+00 1.923750e-01 0.000000e+00
-2.268000e+00 1.923750e-01 0.000000e+00
-2.184000e+00 1.923750e-01 0.000000e+00
-2.100000e+00 1.923750e-01 0.000000e+00
-2.016000e+00 1.923750e-01 0.000000e+00
-2.352000e+00 2.565000e-01 0.000000e+00
-2.268000e+00 2.565000e-01 0.000000e+00
-2.184000e+00 2.565000e-01 0.000000e+00
-2.100000e+00 2.565000e-01 0.000000e+00
-2.016000e+00 2.565000e-01 0.000000e+00
-2.016000e+00 0.000000e+00 0.000000e+00
-1.932000e+00 0.000000e+00 0.000000e+00
-1.848000e+00 0.000000e+00 0.000000e+00
-1.764000e+00 0.000000e+00 0.000000e+00
-1.680000e+00 0.000000e+00 0.000000e+00
-2.016000e+00 6.412500e-02 0.000000e+00
-1.932000e+00 6.412500e-02 0.000000e+00
-1.848000e+00 6.412500e-02 0.000000e+00
-1.764000e+00 6.412500e-02 0.000000e+00
-1.680000e+00 6.412500e-02 0.000000e+00
-2.016000e+00 1.282500e-01 0.000000e+00
-1.932000e+00 1.282500e-01 0.000000e+00
-1.848000e+00 1.282500e-01 0.000000e+00
-1.764000e+00 1.282500e-01 0.000000e+00
-1.680000e+00 1.282500e-01 0.000000e+00
-2.016000e+00 1.923750e-01 0.000000e+00
-1.932000e+00 1.923750e-01 0.000000e+00
-1.848000e+00 1.923750e-01 0.000000e+00
-1.764000e+00 1.923750e-01 0.000000e+00
-1.680000e+00 1.923750e-01 0.000000e+00
-2.016000e+00 2.565000e-01 0.000000e+00
-1.932000e+00 2.565000e-01 0.000000e+00
-1.848000e+00 2.565000e-01 0.000000e+00
-1.764000e+00 2.565000e-01 0.000000e+00
-1.680000e+00 2.565000e-01 0.000000e+00
-1.680000e+00 0.000000e+00 0.000000e+00
-1.596000e+00 0.000000e+00 0.000000e+00
-1.512000e+00 0.000000e+00 0.000000e+00
-1.428000e+00 0.000000e+00 0.000000e+00
-1.344000e+00 0.000000e+00 0.000000e+00
-1.680000e+00 6.412500e-02 0.000000e+00
-1.596000e+00 6.412500e-02 0.000000e+00
-1.512000e+00 6.412500e-02 0.000000e+00
-1.428000e+00 6.412500e-02 0.000000e+00
-1.344000e+00 6.412500e-02 0.000000e+00
-1.680000e+00 1.282500e-01 0.000000e+00
-1.596000e+00 1.282500e-01 0.000000e+00
-1.512000e+00 1.282500e-01 0.000000e+00
-1.428000e+00 1.282500e-01 0.000000e+00
-1.344000e+00 1.282500e-01 0.000000e+00
-1.680000e+00 1.923750e-01 0.000000e+00
-1.596000e+00 1.923750e-01 0.000000e+00
-1.512000e+00 1.923750e-01 0.000000e+00
-1.428000e+00 1.923750e-01 0.000000e+00
-1.344000e+00 1.923750e-01 0.000000e+00
-1.680000e+00 2.565000e-01 0.000000e+00
-1.596000e+00 2.565000e-01 0.000000e+00
-1.512000e+00 2.565000e-01 0.000000e+00
-1.428000e+00 2.565000e-01 0.000000e+00
-1.344000e+00 2.565000e-01 0.000000e+00
-1.344000e+00 0.000000e+00 0.000000e+00
-1.260000e+00 0.000000e+00 0.000000e+00
-1.176000e+00 0.000000e+00 0.000000e+00
-1.092000e+00 0.000000e+00 0.000000e+00
-1.008000e+00 0.000000e+00 0.000000e+00
-1.344000e+00 6.412500e-02 0.000000e+00
-1.260000e+00 6.412500e-02 0.000000e+00
-1.176000e+00 6.412500e-02 0.000000e+00
-1.092000e+00 6.412500e-02 0.000000e+00
-1.008000e+00 6.412500e-02 0.000000e+00
-1.344000e+00 1.282500e-01 0.000000e+00
-1.260000e+00 1.282500e-01 0.000000e+00
-1.176000e+00 1.282500e-01 0.000000e+00
-1.092000e+00 1.282500e-01 0.000000e+00
-1.008000e+00 1.282500e-01 0.000000e+00
-1.344000e+00 1.923750e-01 0.000000e+00
-1.260000e+00 1.923750e-01 0.000000e+00
-1.176000e+00 1.923750e-01 0.000000e+00
-1.092000e+00 1.923750e-01 0.000000e+00
-1.008000e+00 1.923750e-01 0.000000e+00
-1.344000e+00 2.565000e-01 0.000000e+00
-1.260000e+00 2.565000e-01 0.000000e+00
-1.176000e+00 2.565000e-01 0.000000e+00
-1.092000e+00 2.565000e-01 0.000000e+00
-1.008000e+00 2.565000e-01 0.000000e+00
-1.008000e+00 0.000000e+00 0.000000e+00
-9.240000e-01 0.000000e+00 0.000000e+00
-8.400000e-01 0.000000e+00 0.000000e+00
-7.560000e-01 0.000000e+00 0.000000e+00
-6.720000e-01 0.000000e+00 0.000000e+00
-1.008000e+00 6.412500e-02 0.000000e+00
-9.240000e-01 6.412500e-02 0.000000e+00
-8.400000e-01 6.412500e-02 0.000000e+00
-7.560000e-01 6.412500e-02 0.000000e+00
-6.720000e-01 6.412500e-02 0.000000e+00
-1.008000e+00 1.282500e-01 0.000000e+00
-9.240000e-01 1.282500e-01 0.000000e+00
-8.400000e-01 1.282500e-01 0.000000e+00
-7.560000e-01 1.282500e-01 0.000000e+00
-6.720000e-01 1.282500e-01 0.000000e+00
-1.008000e+00 1.923750e-01 0.000000e+00
-9.240000e-01 1.923750e-01 0.000000e+00
-8.400000e-01 1.923750e-01 0.000000e+00
-7.560000e-01 1.923750e-01 0.000000e+00
-6.720000e-01 1.923750e-01 0.000000e+00
-1.008000e+00 2.565000e-01 0.000000e+00
-9.240000e-01 2.565000e-01 0.000000e+00
-8.400000e-01 2.565000e-01 0.000000e+00
-7.560000e-01 2.565000e-01 0.000000e+00
-6.720000e-01 2.565000e-01 0.000000e+00
-6.720000e-01 0.000000e+00 0.000000e+00
-5.880000e-01 0.000000e+00 0.000000e+00
-5.040000e-01 0.000000e+00 0.000000e+00
-4.200000e-01 0.000000e+00 0.000000e+00
-3.360000e-01 0.000000e+00 0.000000e+00
-6.720000e-01 6.412500e-02 0.000000e+00
-5.880000e-01 6.412500e-02 0.000000e+00
-5.040000e-01 6.412500e-02 0.000000e+00
-4.200000e-01 6.412500e-02 0.000000e+00
-3.360000e-01 6.412500e-02 0.000000e+00
-6.720000e-01 1.282500e-01 0.000000e+00
-5.880000e-01 1.282500e-01 0.000000e+00
-5.040000e-01 1.282500e-01 0.000000e+00
-4.200000e-01 1.282500e-01 0.000000e+00
-3.360000e-01 1.282500e-01 0.000000e+00
-6.720000e-01 1.923750e-01 0.000000e+00
-5.880000e-01 1.923750e-01 0.000000e+00
-5.040000e-01 1.923750e-01 0.000000e+00
-4.200000e-01 1.923750e-01 0.000000e+00
-3.360000e-01 1.923750e-01 0.000000e+00
-6.720000e-01 2.565000e-01 0.000000e+00
-5.880000e-01 2.565000e-01 0.000000e+00
-5.040000e-01 2.565000e-01 0.000000e+00
-4.200000e-01 2.565000e-01 0.000000e+00
-3.360000e-01 2.565000e-01 0.000000e+00
-3.360000e-01 0.000000e+00 0.000000e+00
-2.520000e-01 0.000000e+00 0.000000e+00
-1.680000e-01 0.000000e+00 0.000000e+00
-8.400000e-02 0.000000e+00 0.000000e+00
-4.440890e-16 0.000000e+00 0.000000e+00
-3.360000e-01 6.412500e-02 0.000000e+00
-2.520000e-01 6.412500e-02 0.000000e+00
-1.680000e-01 6.412500e-02 0.000000e+00
-8.400000e-02 6.412500e-02 0.000000e+00
-4.440890e-16 6.412500e-02 0.000000e+00
-3.360000e-01 1.282500e-01 0.000000e+00
-2.520000e-01 1.282500e-01 0.000000e+00
-1.680000e-01 1.282500e-01 0.000000e+00
-8.400000e-02 1.282500e-01 0.000000e+00
-4.440890e-16 1.282500e-01 0.000000e+00
-3.360000e-01 1.923750e-01 0.000000e+00
-2.520000e-01 1.923750e-01 0.000000e+00
-1.680000e-01 1.923750e-01 0.000000e+00
[...]
<PointData>
<DataArray type="Float32" Name="V1" format="ascii">
0.000000e+00
0.000000e+00
0.000000e+00
0.000000e+00
0.000000e+00
6.347820e-02
5.980330e-02
5.634390e-02
5.310030e-02
5.007220e-02
1.013490e-01
9.795930e-02
9.440890e-02
9.069730e-02
8.682440e-02
1.136110e-01
1.144680e-01
1.141950e-01
1.127910e-01
1.102570e-01
1.002660e-01
1.093300e-01
1.157020e-01
1.193820e-01
1.203690e-01
0.000000e+00
0.000000e+00
0.000000e+00
0.000000e+00
0.000000e+00
5.007220e-02
4.710240e-02
4.559770e-02
4.555830e-02
4.698400e-02
8.682440e-02
8.299870e-02
8.123750e-02
8.154090e-02
8.390870e-02
1.102570e-01
1.076890e-01
1.069200e-01
1.079480e-01
1.107740e-01
1.203690e-01
1.211730e-01
1.226440e-01
1.247790e-01
1.275800e-01
0.000000e+00
0.000000e+00
0.000000e+00
0.000000e+00
0.000000e+00
4.698400e-02
4.844410e-02
5.012110e-02
5.201500e-02
5.412590e-02
8.390870e-02
8.646420e-02
8.945000e-02
9.286610e-02
9.671240e-02
1.107740e-01
1.140600e-01
1.179870e-01
1.225530e-01
1.277600e-01
1.275800e-01
1.312330e-01
1.357310e-01
1.410760e-01
1.472680e-01
0.000000e+00
0.000000e+00
0.000000e+00
0.000000e+00
0.000000e+00
5.412590e-02
5.636710e-02
5.915300e-02
6.248360e-02
6.635890e-02
9.671240e-02
1.007990e-01
1.057700e-01
1.116270e-01
1.183690e-01
1.277600e-01
1.332950e-01
1.398520e-01
1.474300e-01
1.560290e-01
1.472680e-01
1.538570e-01
1.613980e-01
1.698930e-01
1.793400e-01
0.000000e+00
0.000000e+00
0.000000e+00
0.000000e+00
0.000000e+00
6.635890e-02
7.042480e-02
7.528720e-02
8.094610e-02
8.740150e-02
1.183690e-01
1.254340e-01
1.338280e-01
1.435510e-01
1.546030e-01
1.560290e-01
1.650260e-01
1.756210e-01
1.878130e-01
2.016030e-01
1.793400e-01
1.892030e-01
2.006680e-01
2.137350e-01
2.284040e-01
0.000000e+00
0.000000e+00
0.000000e+00
0.000000e+00
0.000000e+00
8.740150e-02
9.371760e-02
1.016530e-01
1.112080e-01
1.223820e-01
1.546030e-01
1.654120e-01
1.788470e-01
1.949090e-01
2.135960e-01
2.016030e-01
2.150830e-01
2.315830e-01
2.511030e-01
2.736440e-01
2.284040e-01
2.427310e-01
2.598610e-01
2.797920e-01
3.025240e-01
0.000000e+00
0.000000e+00
0.000000e+00
0.000000e+00
0.000000e+00
1.223820e-01
1.326650e-01
1.457370e-01
1.615970e-01
1.802460e-01
2.135960e-01
2.308620e-01
2.525380e-01
2.786240e-01
3.091200e-01
2.736440e-01
2.945910e-01
3.204030e-01
3.510790e-01
3.866190e-01
3.025240e-01
3.238520e-01
3.493310e-01
3.789630e-01
4.127460e-01
0.000000e+00
0.000000e+00
0.000000e+00
0.000000e+00
0.000000e+00
1.802460e-01
1.984010e-01
2.194080e-01
2.432670e-01
2.699780e-01
3.091200e-01
3.391000e-01
3.734990e-01
4.123190e-01
4.555580e-01
3.866190e-01
4.220960e-01
4.622740e-01
5.071560e-01
5.567400e-01
4.127460e-01
4.473890e-01
4.857330e-01
5.277780e-01
5.735240e-01
0.000000e+00
0.000000e+00
0.000000e+00
0.000000e+00
0.000000e+00
2.699780e-01
3.016040e-01
3.326250e-01
3.630420e-01
3.928540e-01
4.555580e-01
5.070460e-01
5.577740e-01
6.077420e-01
6.569500e-01
5.567400e-01
6.163260e-01
6.754450e-01
7.340990e-01
7.922860e-01
5.735240e-01
6.294440e-01
6.856410e-01
7.421140e-01
7.988630e-01
0.000000e+00
0.000000e+00
0.000000e+00
0.000000e+00
0.000000e+00
3.928540e-01
4.351580e-01
4.689590e-01
4.942570e-01
5.110530e-01
6.569500e-01
7.266380e-01
7.841120e-01
8.293730e-01
8.624200e-01
7.922860e-01
8.744390e-01
9.454590e-01
1.005350e+00
1.054100e+00
7.988630e-01
8.785620e-01
9.530010e-01
1.022180e+00
1.086100e+00
0.000000e+00
0.000000e+00
0.000000e+00
0.000000e+00
0.000000e+00
5.110530e-01
5.242010e-01
5.273780e-01
5.205820e-01
5.038140e-01
8.624200e-01
8.906470e-01
9.037840e-01
9.018300e-01
8.847860e-01
1.054100e+00
1.099340e+00
1.129220e+00
1.143740e+00
1.142920e+00
1.086100e+00
1.150270e+00
1.203680e+00
1.246330e+00
1.278200e+00
0.000000e+00
0.000000e+00
0.000000e+00
0.000000e+00
0.000000e+00
5.038140e-01
4.573150e-01
4.077550e-01
3.551320e-01
2.994490e-01
8.847860e-01
8.200950e-01
7.482870e-01
6.693630e-01
5.833230e-01
1.142920e+00
1.088340e+00
1.021600e+00
9.426910e-01
8.516240e-01
1.278200e+00
1.262050e+00
1.227680e+00
1.175120e+00
1.104350e+00
0.000000e+00
0.000000e+00
0.000000e+00
0.000000e+00
0.000000e+00
2.994490e-01
2.442790e-01
1.984620e-01
1.619990e-01
1.348880e-01
5.833230e-01
4.916950e-01
4.131120e-01
3.475740e-01
2.950810e-01
8.516240e-01
7.422490e-01
6.439500e-01
5.567270e-01
4.805790e-01
1.104350e+00
9.959400e-01
8.909760e-01
7.894560e-01
6.913820e-01
0.000000e+00
0.000000e+00
0.000000e+00
0.000000e+00
0.000000e+00
1.348880e-01
1.106660e-01
9.563750e-02
8.980310e-02
9.316260e-02
2.950810e-01
2.488950e-01
2.174800e-01
2.008350e-01
1.989600e-01
4.805790e-01
4.146890e-01
3.655280e-01
3.330960e-01
3.173920e-01
6.913820e-01
6.080460e-01
5.397810e-01
4.865850e-01
4.484590e-01
0.000000e+00
0.000000e+00
0.000000e+00
0.000000e+00
0.000000e+00
9.316260e-02
9.608180e-02
9.735440e-02
9.698040e-02
9.495970e-02
1.989600e-01
1.984940e-01
1.959080e-01
1.912000e-01
1.843710e-01
3.173920e-01
3.072380e-01
2.956600e-01
2.826590e-01
2.682340e-01
4.484590e-01
4.223120e-01
3.966110e-01
3.713570e-01
3.465490e-01
0.000000e+00
0.000000e+00
0.000000e+00
0.000000e+00
0.000000e+00
9.495970e-02
9.447970e-02
9.254880e-02
8.916700e-02
8.433430e-02
1.843710e-01
1.801680e-01
1.740980e-01
1.661620e-01
1.563600e-01
2.682340e-01
2.570650e-01
2.446490e-01
2.309860e-01
2.160760e-01
3.465490e-01
3.251710e-01
3.042000e-01
2.836380e-01
2.634840e-01
0.000000e+00
0.000000e+00
0.000000e+00
0.000000e+00
0.000000e+00
8.433430e-02
8.137520e-02
7.801450e-02
7.425200e-02
7.008790e-02
1.563600e-01
1.497740e-01
1.427640e-01
1.353290e-01
1.274690e-01
2.160760e-01
2.051960e-01
1.942470e-01
1.832300e-01
1.721430e-01
2.634840e-01
2.476420e-01
2.324660e-01
2.179550e-01
2.041100e-01
0.000000e+00
0.000000e+00
0.000000e+00
0.000000e+00
0.000000e+00
7.008790e-02
6.693040e-02
6.376060e-02
6.057840e-02
5.738390e-02
1.274690e-01
1.212490e-01
1.151450e-01
1.091580e-01
1.032870e-01
1.721430e-01
1.629550e-01
1.541540e-01
1.457380e-01
1.377080e-01
2.041100e-01
1.920500e-01
1.807860e-01
1.703190e-01
1.606480e-01
0.000000e+00
0.000000e+00
0.000000e+00
0.000000e+00
0.000000e+00
5.738390e-02
5.464880e-02
5.198070e-02
4.937980e-02
4.684590e-02
1.032870e-01
9.818270e-02
9.326340e-02
8.852870e-02
8.397850e-02
1.377080e-01
1.306020e-01
1.238480e-01
1.174470e-01
1.113980e-01
1.606480e-01
1.519060e-01
1.437350e-01
1.361340e-01
1.291030e-01
0.000000e+00
0.000000e+00
0.000000e+00
0.000000e+00
0.000000e+00
4.684590e-02
4.496120e-02
4.252330e-02
3.953240e-02
3.598840e-02
8.397850e-02
8.028410e-02
7.599640e-02
7.111530e-02
6.564080e-02
1.113980e-01
1.059690e-01
1.004190e-01
9.474860e-02
8.895710e-02
1.291030e-01
1.220150e-01
1.157920e-01
1.104320e-01
1.059370e-01
1.002660e-01
1.093300e-01
1.157020e-01
1.193820e-01
1.203690e-01
9.945850e-02
1.074030e-01
1.137100e-01
1.183810e-01
1.214160e-01
9.848610e-02
1.052600e-01
1.111990e-01
1.163010e-01
1.205680e-01
9.734850e-02
1.029030e-01
1.081670e-01
1.131420e-01
1.178260e-01
9.604590e-02
1.003310e-01
1.046170e-01
1.089020e-01
1.131890e-01
1.203690e-01
1.211730e-01
1.226440e-01
1.247790e-01
1.275800e-01
1.214160e-01
1.237670e-01
1.264110e-01
1.293470e-01
1.325770e-01
1.205680e-01
1.240000e-01
1.274710e-01
1.309830e-01
1.345340e-01
1.178260e-01
1.218720e-01
1.258250e-01
1.296850e-01
1.334520e-01
1.131890e-01
1.173840e-01
1.214730e-01
1.254550e-01
1.293300e-01
1.275800e-01
1.312330e-01
1.357310e-01
1.410760e-01
1.472680e-01
1.325770e-01
1.364100e-01
1.410700e-01
1.465580e-01
1.528740e-01
1.345340e-01
1.385150e-01
1.432730e-01
1.488090e-01
1.551230e-01
1.334520e-01
1.375470e-01
1.423390e-01
1.478280e-01
1.540140e-01
1.293300e-01
1.335070e-01
1.382690e-01
1.436160e-01
1.495470e-01
1.472680e-01
1.538570e-01
1.613980e-01
1.698930e-01
1.793400e-01
1.528740e-01
1.596290e-01
1.673090e-01
1.759140e-01
1.854440e-01
1.551230e-01
1.618940e-01
1.695530e-01
1.781020e-01
1.875400e-01
1.540140e-01
1.606510e-01
1.681320e-01
1.764570e-01
1.856260e-01
1.495470e-01
1.559000e-01
1.630440e-01
1.709780e-01
1.797040e-01
1.793400e-01
1.892030e-01
2.006680e-01
2.137350e-01
2.284040e-01
1.854440e-01
1.953080e-01
2.067330e-01
2.197190e-01
2.342660e-01
1.875400e-01
1.972650e-01
2.084840e-01
2.211970e-01
2.354050e-01
1.856260e-01
1.950720e-01
2.059200e-01
2.181690e-01
2.318200e-01
1.797040e-01
1.887310e-01
1.990410e-01
2.106340e-01
2.235110e-01
2.284040e-01
2.427310e-01
2.598610e-01
2.797920e-01
3.025240e-01
2.342660e-01
2.483170e-01
2.651700e-01
2.848250e-01
3.072820e-01
2.354050e-01
2.490620e-01
2.654590e-01
2.845950e-01
3.064710e-01
2.318200e-01
2.449660e-01
2.607260e-01
2.791010e-01
3.000900e-01
2.235110e-01
2.360280e-01
2.509720e-01
2.683430e-01
2.881410e-01
3.025240e-01
3.238520e-01
3.493310e-01
3.789630e-01
4.127460e-01
3.072820e-01
3.276990e-01
3.526040e-01
3.819960e-01
4.158760e-01
3.064710e-01
3.258390e-01
3.499450e-01
3.787890e-01
4.123700e-01
3.000900e-01
3.182710e-01
3.413540e-01
3.693390e-01
4.022280e-01
2.881410e-01
3.049940e-01
3.268300e-01
3.536480e-01
3.854490e-01
4.127460e-01
4.473890e-01
4.857330e-01
5.277780e-01
5.735240e-01
4.158760e-01
4.490070e-01
4.868180e-01
5.293100e-01
5.764830e-01
4.123700e-01
4.436230e-01
4.804530e-01
5.228610e-01
5.708450e-01
4.022280e-01
4.312380e-01
4.666390e-01
5.084290e-01
5.566100e-01
3.854490e-01
4.118520e-01
4.453740e-01
4.860160e-01
5.337780e-01
5.735240e-01
6.294440e-01
6.856410e-01
7.421140e-01
7.988630e-01
5.764830e-01
6.339050e-01
6.921770e-01
7.513010e-01
8.112750e-01
5.708450e-01
6.288610e-01
6.883070e-01
7.491810e-01
8.114850e-01
5.566100e-01
6.143140e-01
6.740290e-01
7.357560e-01
7.994940e-01
5.337780e-01
5.902620e-01
6.493440e-01
7.110240e-01
7.753010e-01
7.988630e-01
8.785620e-01
9.530010e-01
1.022180e+00
1.086100e+00
8.112750e-01
8.971460e-01
9.771500e-01
1.051280e+00
1.119550e+00
8.114850e-01
9.037890e-01
9.905260e-01
1.071700e+00
1.147300e+00
7.994940e-01
8.984910e-01
9.931300e-01
1.083410e+00
1.169330e+00
7.753010e-01
8.812500e-01
9.849610e-01
1.086430e+00
1.185670e+00
1.086100e+00
1.150270e+00
1.203680e+00
1.246330e+00
1.278200e+00
1.119550e+00
1.196850e+00
1.261470e+00
1.313410e+00
1.352670e+00
1.147300e+00
1.238720e+00
1.315260e+00
1.376940e+00
1.423740e+00
1.169330e+00
1.275870e+00
1.365070e+00
1.436910e+00
1.491410e+00
1.185670e+00
1.308320e+00
1.410870e+00
1.493330e+00
1.555690e+00
1.278200e+00
1.262050e+00
1.227680e+00
1.175120e+00
1.104350e+00
1.352670e+00
1.336540e+00
1.308750e+00
1.269300e+00
1.218200e+00
1.423740e+00
1.403830e+00
1.376100e+00
1.340530e+00
1.297140e+00
1.491410e+00
1.463940e+00
1.429730e+00
1.388810e+00
1.341150e+00
1.555690e+00
1.516840e+00
1.469660e+00
1.414130e+00
1.350250e+00
1.104350e+00
9.959400e-01
8.909760e-01
7.894560e-01
6.913820e-01
1.218200e+00
1.128330e+00
1.035540e+00
9.398420e-01
8.412350e-01
1.297140e+00
1.217280e+00
1.131840e+00
1.040830e+00
9.442480e-01
1.341150e+00
1.262790e+00
1.179880e+00
1.092420e+00
1.000420e+00
1.350250e+00
1.264860e+00
1.179650e+00
1.094610e+00
1.009760e+00
6.913820e-01
6.080460e-01
5.397810e-01
4.865850e-01
4.484590e-01
8.412350e-01
7.503760e-01
6.705930e-01
6.018830e-01
5.442490e-01
9.442480e-01
8.506870e-01
7.640000e-01
6.841870e-01
6.112480e-01
1.000420e+00
9.089780e-01
8.200020e-01
7.334950e-01
6.494560e-01
1.009760e+00
9.252490e-01
8.386000e-01
7.498080e-01
6.588750e-01
4.484590e-01
4.223120e-01
3.966110e-01
3.713570e-01
3.465490e-01
5.442490e-01
5.023650e-01
4.629070e-01
4.258740e-01
3.912660e-01
6.112480e-01
5.572650e-01
5.073010e-01
4.613560e-01
4.194290e-01
6.494560e-01
5.870110e-01
5.297940e-01
4.778030e-01
4.310390e-01
6.588750e-01
5.916050e-01
5.303850e-01
4.752140e-01
4.260940e-01
3.465490e-01
3.251710e-01
3.042000e-01
2.836380e-01
2.634840e-01
3.912660e-01
3.622130e-01
3.348870e-01
3.092890e-01
2.854180e-01
4.194290e-01
3.847090e-01
3.528030e-01
3.237120e-01
2.974340e-01
4.310390e-01
3.926600e-01
3.579490e-01
3.269070e-01
2.995330e-01
4.260940e-01
3.860650e-01
3.503250e-01
3.188740e-01
2.917130e-01
2.634840e-01
2.476420e-01
2.324660e-01
2.179550e-01
2.041100e-01
2.854180e-01
2.669250e-01
2.494690e-01
2.330500e-01
2.176660e-01
2.974340e-01
2.773620e-01
2.585740e-01
2.410720e-01
2.248550e-01
2.995330e-01
2.789520e-01
2.597820e-01
2.420230e-01
2.256740e-01
2.917130e-01
2.716950e-01
2.530910e-01
2.359020e-01
2.201260e-01
2.041100e-01
1.920500e-01
1.807860e-01
1.703190e-01
1.606480e-01
2.176660e-01
2.041990e-01
1.917410e-01
1.802920e-01
1.698530e-01
2.248550e-01
2.105140e-01
1.973510e-01
1.853660e-01
1.745570e-01
2.256740e-01
2.109970e-01
1.976180e-01
1.855400e-01
1.747600e-01
2.201260e-01
2.056450e-01
1.925410e-01
1.808140e-01
1.704630e-01
1.606480e-01
1.519060e-01
1.437350e-01
1.361340e-01
1.291030e-01
1.698530e-01
1.604730e-01
1.517260e-01
1.436110e-01
1.361270e-01
1.745570e-01
1.648680e-01
1.558520e-01
1.475090e-01
1.398400e-01
1.747600e-01
1.650890e-01
1.561120e-01
1.478290e-01
1.402400e-01
1.704630e-01
1.611380e-01
1.525070e-01
1.445700e-01
1.373280e-01
1.291030e-01
1.220150e-01
1.157920e-01
1.104320e-01
1.059370e-01
1.361270e-01
1.288760e-01
1.224780e-01
1.169330e-01
1.122420e-01
1.398400e-01
1.326030e-01
1.261800e-01
1.205700e-01
1.157730e-01
1.402400e-01
1.331980e-01
1.268990e-01
1.213440e-01
1.165310e-01
1.373280e-01
1.306600e-01
1.246350e-01
1.192540e-01
1.145160e-01
9.604590e-02
1.003310e-01
1.046170e-01
1.089020e-01
1.131890e-01
9.458900e-02
9.848910e-02
1.024340e-01
1.064230e-01
1.104570e-01
9.299440e-02
9.662620e-02
1.003040e-01
1.040290e-01
1.077990e-01
9.126190e-02
9.474220e-02
9.822790e-02
1.017190e-01
1.052150e-01
8.939170e-02
9.283720e-02
9.620470e-02
9.949410e-02
1.027050e-01
1.131890e-01
1.173840e-01
1.214730e-01
1.254550e-01
1.293300e-01
1.104570e-01
1.145180e-01
1.185520e-01
1.225600e-01
1.265410e-01
1.077990e-01
1.116890e-01
1.156230e-01
1.196020e-01
1.236260e-01
1.052150e-01
1.088980e-01
1.126860e-01
1.165820e-01
1.205830e-01
1.027050e-01
1.061440e-01
1.097420e-01
1.134980e-01
1.174130e-01
1.293300e-01
1.335070e-01
1.382690e-01
1.436160e-01
1.495470e-01
1.265410e-01
1.307710e-01
1.355190e-01
1.407850e-01
1.465690e-01
1.236260e-01
1.278600e-01
1.325510e-01
1.376980e-01
1.433020e-01
1.205830e-01
1.247750e-01
1.293650e-01
1.343560e-01
1.397450e-01
1.174130e-01
1.215140e-01
1.259620e-01
1.307570e-01
1.359000e-01
1.495470e-01
1.559000e-01
1.630440e-01
1.709780e-01
1.797040e-01
1.465690e-01
1.527190e-01
1.596190e-01
1.672670e-01
1.756650e-01
1.433020e-01
1.492170e-01
1.558350e-01
1.631560e-01
1.711810e-01
1.397450e-01
1.453910e-01
1.516920e-01
1.586460e-01
1.662550e-01
1.359000e-01
1.412440e-01
1.471890e-01
1.537360e-01
1.608840e-01
1.797040e-01
1.887310e-01
1.990410e-01
2.106340e-01
2.235110e-01
1.756650e-01
1.843310e-01
1.941960e-01
2.052610e-01
2.175250e-01
1.711810e-01
1.794190e-01
1.887760e-01
1.992510e-01
2.108440e-01
1.662550e-01
1.739970e-01
1.827800e-01
1.926040e-01
2.034680e-01
1.608840e-01
1.680630e-01
1.762080e-01
1.853200e-01
1.953980e-01
2.235110e-01
2.360280e-01
2.509720e-01
2.683430e-01
2.881410e-01
2.175250e-01
2.294690e-01
2.436710e-01
2.601310e-01
2.788490e-01
2.108440e-01
2.220630e-01
2.354000e-01
2.508550e-01
2.684270e-01
2.034680e-01
2.138110e-01
2.261590e-01
2.405130e-01
2.568740e-01
1.953980e-01
2.047110e-01
2.159470e-01
2.291070e-01
2.441890e-01
2.881410e-01
3.049940e-01
3.268300e-01
3.536480e-01
3.854490e-01
2.788490e-01
2.942820e-01
3.148730e-01
3.406210e-01
3.715270e-01
2.684270e-01
2.822490e-01
3.013920e-01
3.258570e-01
3.556430e-01
2.568740e-01
2.688930e-01
2.863870e-01
3.093550e-01
3.377980e-01
2.441890e-01
2.542150e-01
2.698580e-01
2.911170e-01
3.179920e-01
3.854490e-01
4.118520e-01
4.453740e-01
4.860160e-01
5.337780e-01
3.715270e-01
3.947300e-01
4.260760e-01
4.655650e-01
5.131970e-01
3.556430e-01
3.745170e-01
4.031390e-01
4.415080e-01
4.896250e-01
3.377980e-01
3.512140e-01
3.765640e-01
4.138470e-01
4.630630e-01
3.179920e-01
3.248210e-01
3.463500e-01
3.825800e-01
4.335100e-01
5.337780e-01
5.902620e-01
6.493440e-01
7.110240e-01
7.753010e-01
5.131970e-01
5.690540e-01
6.263620e-01
6.851210e-01
7.453310e-01
4.896250e-01
5.407610e-01
5.935990e-01
6.481390e-01
7.043810e-01
4.630630e-01
5.053830e-01
5.510550e-01
6.000770e-01
6.524500e-01
4.335100e-01
4.629210e-01
4.987290e-01
5.409350e-01
5.895380e-01
7.753010e-01
8.812500e-01
9.849610e-01
1.086430e+00
1.185670e+00
7.453310e-01
8.756810e-01
9.961670e-01
1.106790e+00
1.207550e+00
7.043810e-01
8.517240e-01
9.768690e-01
1.079820e+00
1.160560e+00
6.524500e-01
8.093780e-01
9.270650e-01
1.005510e+00
1.044710e+00
5.895380e-01
7.486440e-01
8.467560e-01
8.838730e-01
8.599960e-01
1.185670e+00
1.308320e+00
1.410870e+00
1.493330e+00
1.555690e+00
1.207550e+00
1.322960e+00
1.421730e+00
1.503880e+00
1.569400e+00
1.160560e+00
1.266880e+00
1.361330e+00
1.443910e+00
1.514610e+00
1.044710e+00
1.140100e+00
1.229660e+00
1.313410e+00
1.391330e+00
8.599960e-01
9.426040e-01
1.026730e+00
1.112380e+00
1.199550e+00
1.555690e+00
1.516840e+00
1.469660e+00
1.414130e+00
1.350250e+00
1.569400e+00
1.537770e+00
1.495610e+00
1.442930e+00
1.379720e+00
1.514610e+00
1.481640e+00
1.443420e+00
1.399960e+00
1.351260e+00
1.391330e+00
1.348470e+00
1.313100e+00
1.285240e+00
1.264870e+00
1.199550e+00
1.138250e+00
1.104640e+00
1.098740e+00
1.120540e+00
1.350250e+00
1.264860e+00
1.179650e+00
1.094610e+00
1.009760e+00
1.379720e+00
1.270940e+00
1.166480e+00
1.066340e+00
9.705130e-01
1.351260e+00
1.236980e+00
1.126090e+00
1.018560e+00
9.144130e-01
1.264870e+00
1.162980e+00
1.058450e+00
9.512760e-01
8.414550e-01
1.120540e+00
1.048930e+00
9.635800e-01
8.644820e-01
7.516400e-01
1.009760e+00
9.252490e-01
8.386000e-01
7.498080e-01
6.588750e-01
9.705130e-01
8.916790e-01
8.088590e-01
7.220540e-01
6.312620e-01
9.144130e-01
8.416690e-01
7.638150e-01
6.808510e-01
5.927780e-01
8.414550e-01
7.752180e-01
7.034670e-01
6.262010e-01
5.434210e-01
7.516400e-01
6.923270e-01
6.278150e-01
5.581040e-01
4.831940e-01
6.588750e-01
5.916050e-01
5.303850e-01
4.752140e-01
4.260940e-01
6.312620e-01
5.666510e-01
5.082160e-01
4.559550e-01
4.098690e-01
5.927780e-01
5.340820e-01
4.809400e-01
4.333500e-01
3.913130e-01
5.434210e-01
4.938980e-01
4.485570e-01
4.073990e-01
3.704250e-01
4.831940e-01
4.460980e-01
4.110680e-01
3.781040e-01
3.472050e-01
4.260940e-01
3.860650e-01
3.503250e-01
3.188740e-01
2.917130e-01
4.098690e-01
3.713910e-01
3.370760e-01
3.069230e-01
2.809330e-01
3.913130e-01
3.549380e-01
3.224940e-01
2.939820e-01
2.694020e-01
3.704250e-01
3.367040e-01
3.065790e-01
2.800510e-01
2.571190e-01
3.472050e-01
3.166900e-01
2.893320e-01
2.651300e-01
2.440850e-01
2.917130e-01
2.716950e-01
2.530910e-01
2.359020e-01
2.201260e-01
2.809330e-01
2.627140e-01
2.455660e-01
2.294880e-01
2.144820e-01
2.694020e-01
2.531330e-01
2.375510e-01
2.226540e-01
2.084430e-01
2.571190e-01
2.429530e-01
2.290460e-01
2.153970e-01
2.020070e-01
2.440850e-01
2.321740e-01
2.200520e-01
2.077200e-01
1.951760e-01
2.201260e-01
2.056450e-01
1.925410e-01
1.808140e-01
1.704630e-01
2.144820e-01
2.003570e-01
1.876600e-01
1.763900e-01
1.665490e-01
2.084430e-01
1.947330e-01
1.824930e-01
1.717220e-01
1.624210e-01
2.020070e-01
1.887740e-01
1.770420e-01
1.668110e-01
1.580800e-01
1.951760e-01
1.824800e-01
1.713060e-01
1.616550e-01
1.535270e-01
1.704630e-01
1.611380e-01
1.525070e-01
1.445700e-01
1.373280e-01
1.665490e-01
1.577140e-01
1.495040e-01
1.419200e-01
1.349620e-01
1.624210e-01
1.540930e-01
1.463180e-01
1.390950e-01
1.324250e-01
1.580800e-01
1.502760e-01
1.429480e-01
1.360950e-01
1.297170e-01
1.535270e-01
1.462630e-01
1.393940e-01
1.329190e-01
1.268380e-01
1.373280e-01
1.306600e-01
1.246350e-01
1.192540e-01
1.145160e-01
1.349620e-01
1.285610e-01
1.227800e-01
1.176170e-01
1.130740e-01
1.324250e-01
1.262850e-01
1.207460e-01
1.158100e-01
1.114770e-01
1.297170e-01
1.238300e-01
1.185350e-01
1.138330e-01
1.097240e-01
1.268380e-01
1.211970e-01
1.161470e-01
1.116860e-01
1.078150e-01
8.939170e-02
9.283720e-02
9.620470e-02
9.949410e-02
1.027050e-01
8.740010e-02
9.064130e-02
9.382640e-02
9.695560e-02
1.000290e-01
8.530680e-02
8.834020e-02
9.134260e-02
9.431400e-02
9.725460e-02
8.311190e-02
8.593390e-02
8.875310e-02
9.156950e-02
9.438320e-02
8.081530e-02
8.342240e-02
8.605800e-02
8.872200e-02
9.141440e-02
1.027050e-01
1.061440e-01
1.097420e-01
1.134980e-01
1.174130e-01
1.000290e-01
1.032760e-01
1.067040e-01