<?xml version="1.0"?>
<VTKFile type="UnstructuredGrid" version="0.1" byte_order="LittleEndian" compressor="vtkZLibDataCompressor">
<UnstructuredGrid>
<Piece NumberOfPoints="10000" NumberOfCells="6400">
<Points>
<DataArray type="Float32" NumberOfComponents="3" format="ascii">
-3.360000e+00 0.000000e+00 0.000000e+00
-3.276000e+00 0.000000e+00 0.000000e+00
-3.192000e+00 0.000000e+00 0.000000e+00
-3.108000e+00 0.000000e+00 0.000000e+00
-3.024000e+00 0.000000e+00 0.000000e+00
-3.360000e+00 6.412500e-02 0.000000e+00
-3.276000e+00 6.412500e-02 0.000000e+00
-3.192000e+00 6.412500e-02 0.000000e+00
-3.108000e+00 6.412500e-02 0.000000e+00
-3.024000e+00 6.412500e-02 0.000000e+00
-3.360000e+00 1.282500e-01 0.000000e+00
-3.276000e+00 1.282500e-01 0.000000e+00
-3.192000e+00 1.282500e-01 0.000000e+00
-3.108000e+00 1.282500e-01 0.000000e+00
-3.024000e+00 1.282500e-01 0.000000e+00
-3.360000e+00 1.923750e-01 0.000000e+00
-3.276000e+00 1.923750e-01 0.000000e+00
-3.192000e+00 1.923750e-01 0.000000e+00
-3.108000e+00 1.923750e-01 0.000000e+00
-3.024000e+00 1.923750e-01 0.000000e+00
-3.360000e+00 2.565000e-01 0.000000e+00
-3.276000e+00 2.565000e-01 0.000000e+00
-3.192000e+00 2.565000e-01 0.000000e+00
-3.108000e+00 2.565000e-01 0.000000e+00
-3.024000e+00 2.565000e-01 0.000000e+00
-3.024000e+00 0.000000e+00 0.000000e+00
-2.940000e+00 0.000000e+00 0.000000e+00
-2.856000e+00 0.000000e+00 0.000000e+00
-2.772000e+00 0.000000e+00 0.000000e+00
-2.688000e+00 0.000000e+00 0.000000e+00
-3.024000e+00 6.412500e-02 0.000000e+00
-2.940000e+00 6.412500e-02 0.000000e+00
-2.856000e+00 6.412500e-02 0.000000e+00
-2.772000e+00 6.412500e-02 0.000000e+00
-2.688000e+00 6.412500e-02 0.000000e+00
-3.024000e+00 1.282500e-01 0.000000e+00
-2.940000e+00 1.282500e-01 0.000000e+00
-2.856000e+00 1.282500e-01 0.000000e+00
-2.772000e+00 1.282500e-01 0.000000e+00
-2.688000e+00 1.282500e-01 0.000000e+00
-3.024000e+00 1.923750e-01 0.000000e+00
-2.940000e+00 1.923750e-01 0.000000e+00
-2.856000e+00 1.923750e-01 0.000000e+00
-2.772000e+00 1.923750e-01 0.000000e+00
-2.688000e+00 1.923750e-01 0.000000e+00
-3.024000e+00 2.565000e-01 0.000000e+00
-2.940000e+00 2.565000e-01 0.000000e+00
-2.856000e+00 2.565000e-01 0.000000e+00
-2.772000e+00 2.565000e-01 0.000000e+00
-2.688000e+00 2.565000e-01 0.000000e+00
-2.688000e+00 0.000000e+00 0.000000e+00
-2.604000e+00 0.000000e+00 0.000000e+00
-2.520000e+00 0.000000e+00 0.000000e+00
-2.436000e+00 0.000000e+00 0.000000e+00
-2.352000e+00 0.000000e+00 0.000000e+00
-2.688000e+00 6.412500e-02 0.000000e+00
-2.604000e+00 6.412500e-02 0.000000e+00
-2.520000e+00 6.412500e-02 0.000000e+00
-2.436000e+00 6.412500e-02 0.000000e+00
-2.352000e+00 6.412500e-02 0.000000e+00
-2.688000e+00 1.282500e-01 0.000000e+00
-2.604000e+00 1.282500e-01 0.000000e+00
-2.520000e+00 1.282500e-01 0.000000e+00
-2.436000e+00 1.282500e-01 0.000000e+00
-2.352000e+00 1.282500e-01 0.000000e+00
-2.688000e+00 1.923750e-01 0.000000e+00
-2.604000e+00 1.923750e-01 0.000000e+00
-2.520000e+00 1.923750e-01 0.000000e+00
-2.436000e+00 1.923750e-01 0.000000e+00
-2.352000e+00 1.923750e-01 0.000000e+00
-2.688000e+00 2.565000e-01 0.000000e+00
-2.604000e+00 2.565000e-01 0.000000e+00
-2.520000e+00 2.565000e-01 0.000000e+00
-2.436000e+00 2.565000e-01 0.000000e+00
-2.352000e+00 2.565000e-01 0.000000e+00
-2.352000e+00 0.000000e+00 0.000000e+00
-2.268000e+00 0.000000e+00 0.000000e+00
-2.184000e+00 0.000000e+00 0.000000e+00
-2.100000e+00 0.000000e+00 0.000000e+00
-2.016000e+00 0.000000e+00 0.000000e+00
-2.352000e+00 6.412500e-02 0.000000e+00
-2.268000e+00 6.412500e-02 0.000000e+00
-2.184000e+00 6.412500e-02 0.000000e+00
-2.100000e+00 6.412500e-02 0.000000e+00
-2.016000e+00 6.412500e-02 0.000000e+00
-2.352000e+00 1.282500e-01 0.000000e+00
-2.268000e+00 1.282500e-01 0.000000e+00
-2.184000e+00 1.282500e-01 0.000000e+00
-2.100000e+00 1.282500e-01 0.000000e+00
-2.016000e+00 1.282500e-01 0.000000e+00
-2.352000e+00 1.923750e-01 0.000000e+00
-2.268000e+00 1.923750e-01 0.000000e+00
-2.184000e+00 1.923750e-01 0.000000e+00
-2.100000e+00 1.923750e-01 0.000000e+00
-2.016000e+00 1.923750e-01 0.000000e+00
-2.352000e+00 2.565000e-01 0.000000e+00
-2.268000e+00 2.565000e-01 0.000000e+00
-2.184000e+00 2.565000e-01 0.000000e+00
-2.100000e+00 2.565000e-01 0.000000e+00
-2.016000e+00 2.565000e-01 0.000000e+00
-2.016000e+00 0.000000e+00 0.000000e+00
-1.932000e+00 0.000000e+00 0.000000e+00
-1.848000e+00 0.000000e+00 0.000000e+00
-1.764000e+00 0.000000e+00 0.000000e+00
-1.680000e+00 0.000000e+00 0.000000e+00
-2.016000e+00 6.412500e-02 0.000000e+00
-1.932000e+00 6.412500e-02 0.000000e+00
-1.848000e+00 6.412500e-02 0.000000e+00
-1.764000e+00 6.412500e-02 0.000000e+00
-1.680000e+00 6.412500e-02 0.000000e+00
-2.016000e+00 1.282500e-01 0.000000e+00
-1.932000e+00 1.282500e-01 0.000000e+00
-1.848000e+00 1.282500e-01 0.000000e+00
-1.764000e+00 1.282500e-01 0.000000e+00
-1.680000e+00 1.282500e-01 0.000000e+00
-2.016000e+00 1.923750e-01 0.000000e+00
-1.932000e+00 1.923750e-01 0.000000e+00
-1.848000e+00 1.923750e-01 0.000000e+00
-1.764000e+00 1.923750e-01 0.000000e+00
-1.680000e+00 1.923750e-01 0.000000e+00
-2.016000e+00 2.565000e-01 0.000000e+00
-1.932000e+00 2.565000e-01 0.000000e+00
-1.848000e+00 2.565000e-01 0.000000e+00
-1.764000e+00 2.565000e-01 0.000000e+00
-1.680000e+00 2.565000e-01 0.000000e+00
-1.680000e+00 0.000000e+00 0.000000e+00
-1.596000e+00 0.000000e+00 0.000000e+00
-1.512000e+00 0.000000e+00 0.000000e+00
-1.428000e+00 0.000000e+00 0.000000e+00
-1.344000e+00 0.000000e+00 0.000000e+00
-1.680000e+00 6.412500e-02 0.000000e+00
-1.596000e+00 6.412500e-02 0.000000e+00
-1.512000e+00 6.412500e-02 0.000000e+00
-1.428000e+00 6.412500e-02 0.000000e+00
-1.344000e+00 6.412500e-02 0.000000e+00
-1.680000e+00 1.282500e-01 0.000000e+00
-1.596000e+00 1.282500e-01 0.000000e+00
-1.512000e+00 1.282500e-01 0.000000e+00
-1.428000e+00 1.282500e-01 0.000000e+00
-1.344000e+00 1.282500e-01 0.000000e+00
-1.680000e+00 1.923750e-01 0.000000e+00
-1.596000e+00 1.923750e-01 0.000000e+00
-1.512000e+00 1.923750e-01 0.000000e+00
-1.428000e+00 1.923750e-01 0.000000e+00
-1.344000e+00 1.923750e-01 0.000000e+00
-1.680000e+00 2.565000e-01 0.000000e+00
-1.596000e+00 2.565000e-01 0.000000e+00
-1.512000e+00 2.565000e-01 0.000000e+00
-1.428000e+00 2.565000e-01 0.000000e+00
-1.344000e+00 2.565000e-01 0.000000e+00
-1.344000e+00 0.000000e+00 0.000000e+00
-1.260000e+00 0.000000e+00 0.000000e+00
-1.176000e+00 0.000000e+00 0.000000e+00
-1.092000e+00 0.000000e+00 0.000000e+00
-1.008000e+00 0.000000e+00 0.000000e+00
-1.344000e+00 6.412500e-02 0.000000e+00
-1.260000e+00 6.412500e-02 0.000000e+00
-1.176000e+00 6.412500e-02 0.000000e+00
-1.092000e+00 6.412500e-02 0.000000e+00
-1.008000e+00 6.412500e-02 0.000000e+00
-1.344000e+00 1.282500e-01 0.000000e+00
-1.260000e+00 1.282500e-01 0.000000e+00
-1.176000e+00 1.282500e-01 0.000000e+00
-1.092000e+00 1.282500e-01 0.000000e+00
-1.008000e+00 1.282500e-01 0.000000e+00
-1.344000e+00 1.923750e-01 0.000000e+00
-1.260000e+00 1.923750e-01 0.000000e+00
-1.176000e+00 1.923750e-01 0.000000e+00
-1.092000e+00 1.923750e-01 0.000000e+00
-1.008000e+00 1.923750e-01 0.000000e+00
-1.344000e+00 2.565000e-01 0.000000e+00
-1.260000e+00 2.565000e-01 0.000000e+00
-1.176000e+00 2.565000e-01 0.000000e+00
-1.092000e+00 2.565000e-01 0.000000e+00
-1.008000e+00 2.565000e-01 0.000000e+00
-1.008000e+00 0.000000e+00 0.000000e+00
-9.240000e-01 0.000000e+00 0.000000e+00
-8.400000e-01 0.000000e+00 0.000000e+00
-7.560000e-01 0.000000e+00 0.000000e+00
-6.720000e-01 0.000000e+00 0.000000e+00
-1.008000e+00 6.412500e-02 0.000000e+00
-9.240000e-01 6.412500e-02 0.000000e+00
-8.400000e-01 6.412500e-02 0.000000e+00
-7.560000e-01 6.412500e-02 0.000000e+00
-6.720000e-01 6.412500e-02 0.000000e+00
-1.008000e+00 1.282500e-01 0.000000e+00
-9.240000e-01 1.282500e-01 0.000000e+00
-8.400000e-01 1.282500e-01 0.000000e+00
-7.560000e-01 1.282500e-01 0.000000e+00
-6.720000e-01 1.282500e-01 0.000000e+00
-1.008000e+00 1.923750e-01 0.000000e+00
-9.240000e-01 1.923750e-01 0.000000e+00
-8.400000e-01 1.923750e-01 0.000000e+00
-7.560000e-01 1.923750e-01 0.000000e+00
-6.720000e-01 1.923750e-01 0.000000e+00
-1.008000e+00 2.565000e-01 0.000000e+00
-9.240000e-01 2.565000e-01 0.000000e+00
-8.400000e-01 2.565000e-01 0.000000e+00
-7.560000e-01 2.565000e-01 0.000000e+00
-6.720000e-01 2.565000e-01 0.000000e+00
-6.720000e-01 0.000000e+00 0.000000e+00
-5.880000e-01 0.000000e+00 0.000000e+00
-5.040000e-01 0.000000e+00 0.000000e+00
-4.200000e-01 0.000000e+00 0.000000e+00
-3.360000e-01 0.000000e+00 0.000000e+00
-6.720000e-01 6.412500e-02 0.000000e+00
-5.880000e-01 6.412500e-02 0.000000e+00
-5.040000e-01 6.412500e-02 0.000000e+00
-4.200000e-01 6.412500e-02 0.000000e+00
-3.360000e-01 6.412500e-02 0.000000e+00
-6.720000e-01 1.282500e-01 0.000000e+00
-5.880000e-01 1.282500e-01 0.000000e+00
-5.040000e-01 1.282500e-01 0.000000e+00
-4.200000e-01 1.282500e-01 0.000000e+00
-3.360000e-01 1.282500e-01 0.000000e+00
-6.720000e-01 1.923750e-01 0.000000e+00
-5.880000e-01 1.923750e-01 0.000000e+00
-5.040000e-01 1.923750e-01 0.000000e+00
-4.200000e-01 1.923750e-01 0.000000e+00
-3.360000e-01 1.923750e-01 0.000000e+00
-6.720000e-01 2.565000e-01 0.000000e+00
-5.880000e-01 2.565000e-01 0.000000e+00
-5.040000e-01 2.565000e-01 0.000000e+00
-4.200000e-01 2.565000e-01 0.000000e+00
-3.360000e-01 2.565000e-01 0.000000e+00
-3.360000e-01 0.000000e+00 0.000000e+00
-2.520000e-01 0.000000e+00 0.000000e+00
-1.680000e-01 0.000000e+00 0.000000e+00
-8.400000e-02 0.000000e+00 0.000000e+00
-4.440890e-16 0.000000e+00 0.000000e+00
-3.360000e-01 6.412500e-02 0.000000e+00
-2.520000e-01 6.412500e-02 0.000000e+00
-1.680000e-01 6.412500e-02 0.000000e+00
-8.400000e-02 6.412500e-02 0.000000e+00
-4.440890e-16 6.412500e-02 0.000000e+00
-3.360000e-01 1.282500e-01 0.000000e+00
-2.520000e-01 1.282500e-01 0.000000e+00
-1.680000e-01 1.282500e-01 0.000000e+00
-8.400000e-02 1.282500e-01 0.000000e+00
-4.440890e-16 1.282500e-01 0.000000e+00
-3.360000e-01 1.923750e-01 0.000000e+00
-2.520000e-01 1.923750e-01 0.000000e+00
-1.680000e-01 1.923750e-01 0.000000e+00
[...]
<PointData>
<DataArray type="Float32" Name="V1" format="ascii">
0.000000e+00
0.000000e+00
0.000000e+00
0.000000e+00
0.000000e+00
6.347820e-02
5.992570e-02
5.671350e-02
5.384170e-02
5.131030e-02
1.013490e-01
9.813070e-02
9.494590e-02
9.179420e-02
8.867550e-02
1.136110e-01
1.146150e-01
1.146970e-01
1.138570e-01
1.120960e-01
1.002660e-01
1.093790e-01
1.159670e-01
1.200310e-01
1.215710e-01
0.000000e+00
0.000000e+00
0.000000e+00
0.000000e+00
0.000000e+00
5.131030e-02
4.881150e-02
4.772110e-02
4.803940e-02
4.976610e-02
8.867550e-02
8.559170e-02
8.449500e-02
8.538560e-02
8.826340e-02
1.120960e-01
1.103410e-01
1.103220e-01
1.120390e-01
1.154920e-01
1.215710e-01
1.230580e-01
1.252010e-01
1.279990e-01
1.314520e-01
0.000000e+00
0.000000e+00
0.000000e+00
0.000000e+00
0.000000e+00
4.976610e-02
5.151580e-02
5.349680e-02
5.570920e-02
5.815280e-02
8.826340e-02
9.130100e-02
9.478910e-02
9.872790e-02
1.031170e-01
1.154920e-01
1.193550e-01
1.238770e-01
1.290560e-01
1.348940e-01
1.314520e-01
1.356790e-01
1.407600e-01
1.466940e-01
1.534820e-01
0.000000e+00
0.000000e+00
0.000000e+00
0.000000e+00
0.000000e+00
5.815280e-02
6.072380e-02
6.388060e-02
6.762300e-02
7.195130e-02
1.031170e-01
1.077430e-01
1.133180e-01
1.198440e-01
1.273200e-01
1.348940e-01
1.410570e-01
1.483130e-01
1.566630e-01
1.661050e-01
1.534820e-01
1.606670e-01
1.688660e-01
1.780790e-01
1.883070e-01
0.000000e+00
0.000000e+00
0.000000e+00
0.000000e+00
0.000000e+00
7.195130e-02
7.642770e-02
8.179850e-02
8.806370e-02
9.522320e-02
1.273200e-01
1.350460e-01
1.442550e-01
1.549480e-01
1.671250e-01
1.661050e-01
1.758540e-01
1.873700e-01
2.006540e-01
2.157050e-01
1.883070e-01
1.988520e-01
2.111430e-01
2.251810e-01
2.409640e-01
0.000000e+00
0.000000e+00
0.000000e+00
0.000000e+00
0.000000e+00
9.522320e-02
1.021060e-01
1.107940e-01
1.212870e-01
1.335850e-01
1.671250e-01
1.788340e-01
1.934590e-01
2.109990e-01
2.314550e-01
2.157050e-01
2.301830e-01
2.479920e-01
2.691340e-01
2.936080e-01
2.409640e-01
2.561530e-01
2.743960e-01
2.956940e-01
3.200460e-01
0.000000e+00
0.000000e+00
0.000000e+00
0.000000e+00
0.000000e+00
1.335850e-01
1.447880e-01
1.589810e-01
1.761650e-01
1.963390e-01
2.314550e-01
2.501740e-01
2.736050e-01
3.017460e-01
3.345980e-01
2.936080e-01
3.161590e-01
3.438710e-01
3.767430e-01
4.147740e-01
3.200460e-01
3.427430e-01
3.697800e-01
4.011550e-01
4.368700e-01
0.000000e+00
0.000000e+00
0.000000e+00
0.000000e+00
0.000000e+00
1.963390e-01
2.163000e-01
2.389140e-01
2.641820e-01
2.921040e-01
3.345980e-01
3.674690e-01
4.044250e-01
4.454660e-01
4.905920e-01
4.147740e-01
4.535080e-01
4.965340e-01
5.438520e-01
5.954630e-01
4.368700e-01
4.744160e-01
5.152400e-01
5.593410e-01
6.067180e-01
0.000000e+00
0.000000e+00
0.000000e+00
0.000000e+00
0.000000e+00
2.921040e-01
3.264580e-01
3.593290e-01
3.907160e-01
4.206180e-01
4.905920e-01
5.463180e-01
6.000520e-01
6.517940e-01
7.015440e-01
5.954630e-01
6.595780e-01
7.221690e-01
7.832360e-01
8.427790e-01
6.067180e-01
6.662390e-01
7.256790e-01
7.850400e-01
8.443220e-01
0.000000e+00
0.000000e+00
0.000000e+00
0.000000e+00
0.000000e+00
4.206180e-01
4.634550e-01
4.968620e-01
5.208390e-01
5.353850e-01
7.015440e-01
7.723770e-01
8.296180e-01
8.732670e-01
9.033260e-01
8.427790e-01
9.267650e-01
9.982680e-01
1.057290e+00
1.103820e+00
8.443220e-01
9.266200e-01
1.002810e+00
1.072900e+00
1.136870e+00
0.000000e+00
0.000000e+00
0.000000e+00
0.000000e+00
0.000000e+00
5.353850e-01
5.428030e-01
5.408000e-01
5.293780e-01
5.085350e-01
9.033260e-01
9.229440e-01
9.282470e-01
9.192350e-01
8.959080e-01
1.103820e+00
1.140420e+00
1.162340e+00
1.169570e+00
1.162120e+00
1.136870e+00
1.195240e+00
1.243080e+00
1.280390e+00
1.307170e+00
0.000000e+00
0.000000e+00
0.000000e+00
0.000000e+00
0.000000e+00
5.085350e-01
4.562710e-01
4.030970e-01
3.490130e-01
2.940190e-01
8.959080e-01
8.219860e-01
7.439300e-01
6.617390e-01
5.754140e-01
1.162120e+00
1.097150e+00
1.022500e+00
9.381800e-01
8.441870e-01
1.307170e+00
1.281750e+00
1.238800e+00
1.178330e+00
1.100340e+00
0.000000e+00
0.000000e+00
0.000000e+00
0.000000e+00
0.000000e+00
2.940190e-01
2.419420e-01
2.007860e-01
1.705530e-01
1.512420e-01
5.754140e-01
4.880030e-01
4.163090e-01
3.603330e-01
3.200750e-01
8.441870e-01
7.381840e-01
6.465680e-01
5.693400e-01
5.065000e-01
1.100340e+00
9.924840e-01
8.915630e-01
7.975730e-01
7.105160e-01
0.000000e+00
0.000000e+00
0.000000e+00
0.000000e+00
0.000000e+00
1.512420e-01
1.330000e-01
1.210650e-01
1.154340e-01
1.161090e-01
3.200750e-01
2.832810e-01
2.566940e-01
2.403140e-01
2.341390e-01
5.065000e-01
4.508430e-01
4.068890e-01
3.746380e-01
3.540910e-01
7.105160e-01
6.356850e-01
5.716490e-01
5.184090e-01
4.759640e-01
0.000000e+00
0.000000e+00
0.000000e+00
0.000000e+00
0.000000e+00
1.161090e-01
1.177050e-01
1.168910e-01
1.136650e-01
1.080290e-01
2.341390e-01
2.314820e-01
2.255580e-01
2.163670e-01
2.039080e-01
3.540910e-01
3.413310e-01
3.260030e-01
3.081050e-01
2.876390e-01
4.759640e-01
4.472520e-01
4.182240e-01
3.888800e-01
3.592190e-01
0.000000e+00
0.000000e+00
0.000000e+00
0.000000e+00
0.000000e+00
1.080290e-01
1.050350e-01
1.011200e-01
9.628450e-02
9.052820e-02
2.039080e-01
1.957110e-01
1.865430e-01
1.764050e-01
1.652970e-01
2.876390e-01
2.720280e-01
2.562700e-01
2.403630e-01
2.243070e-01
3.592190e-01
3.339870e-01
3.102990e-01
2.881560e-01
2.675580e-01
0.000000e+00
0.000000e+00
0.000000e+00
0.000000e+00
0.000000e+00
9.052820e-02
8.639230e-02
8.213420e-02
7.775410e-02
7.325190e-02
1.652970e-01
1.569580e-01
1.486090e-01
1.402520e-01
1.318870e-01
2.243070e-01
2.116960e-01
1.994250e-01
1.874950e-01
1.759050e-01
2.675580e-01
2.506080e-01
2.345820e-01
2.194810e-01
2.053050e-01
0.000000e+00
0.000000e+00
0.000000e+00
0.000000e+00
0.000000e+00
7.325190e-02
6.966550e-02
6.614230e-02
6.268250e-02
5.928600e-02
1.318870e-01
1.250480e-01
1.184360e-01
1.120490e-01
1.058890e-01
1.759050e-01
1.661480e-01
1.568800e-01
1.481010e-01
1.398100e-01
2.053050e-01
1.929650e-01
1.814760e-01
1.708360e-01
1.610470e-01
0.000000e+00
0.000000e+00
0.000000e+00
0.000000e+00
0.000000e+00
5.928600e-02
5.633330e-02
5.348030e-02
5.072680e-02
4.807290e-02
1.058890e-01
1.004680e-01
9.528010e-02
9.032610e-02
8.560570e-02
1.398100e-01
1.324030e-01
1.254000e-01
1.187980e-01
1.125980e-01
1.610470e-01
1.521400e-01
1.438390e-01
1.361420e-01
1.290510e-01
0.000000e+00
0.000000e+00
0.000000e+00
0.000000e+00
0.000000e+00
4.807290e-02
4.604170e-02
4.349280e-02
4.042610e-02
3.684180e-02
8.560570e-02
8.170090e-02
7.725420e-02
7.226560e-02
6.673520e-02
1.125980e-01
1.069780e-01
1.012840e-01
9.551850e-02
8.968020e-02
1.290510e-01
1.218720e-01
1.155830e-01
1.101850e-01
1.056770e-01
1.002660e-01
1.093790e-01
1.159670e-01
1.200310e-01
1.215710e-01
9.945850e-02
1.073530e-01
1.137240e-01
1.185710e-01
1.218950e-01
9.848610e-02
1.051630e-01
1.110730e-01
1.162170e-01
1.205940e-01
9.734850e-02
1.028070e-01
1.080130e-01
1.129670e-01
1.176690e-01
9.604590e-02
1.002870e-01
1.045460e-01
1.088230e-01
1.131180e-01
1.215710e-01
1.230580e-01
1.252010e-01
1.279990e-01
1.314520e-01
1.218950e-01
1.247030e-01
1.278410e-01
1.313080e-01
1.351050e-01
1.205940e-01
1.243160e-01
1.281440e-01
1.320780e-01
1.361190e-01
1.176690e-01
1.218960e-01
1.261090e-01
1.303070e-01
1.344910e-01
1.131180e-01
1.174450e-01
1.217380e-01
1.259970e-01
1.302230e-01
1.314520e-01
1.356790e-01
1.407600e-01
1.466940e-01
1.534820e-01
1.351050e-01
1.394520e-01
1.446330e-01
1.506500e-01
1.575010e-01
1.361190e-01
1.405560e-01
1.457820e-01
1.517960e-01
1.585970e-01
1.344910e-01
1.389930e-01
1.442060e-01
1.501320e-01
1.567700e-01
1.302230e-01
1.347610e-01
1.399060e-01
1.456580e-01
1.520190e-01
1.534820e-01
1.606670e-01
1.688660e-01
1.780790e-01
1.883070e-01
1.575010e-01
1.647790e-01
1.730430e-01
1.822920e-01
1.925260e-01
1.585970e-01
1.658360e-01
1.740220e-01
1.831560e-01
1.932370e-01
1.567700e-01
1.638360e-01
1.718040e-01
1.806720e-01
1.904400e-01
1.520190e-01
1.587810e-01
1.663870e-01
1.748390e-01
1.841360e-01
1.883070e-01
1.988520e-01
2.111430e-01
2.251810e-01
2.409640e-01
1.925260e-01
2.029910e-01
2.151640e-01
2.290470e-01
2.446370e-01
1.932370e-01
2.035050e-01
2.154140e-01
2.289640e-01
2.441550e-01
1.904400e-01
2.003940e-01
2.118920e-01
2.249320e-01
2.395160e-01
1.841360e-01
1.936590e-01
2.045980e-01
2.169520e-01
2.307210e-01
2.409640e-01
2.561530e-01
2.743960e-01
2.956940e-01
3.200460e-01
2.446370e-01
2.594240e-01
2.773110e-01
2.982990e-01
3.223880e-01
2.441550e-01
2.584560e-01
2.758260e-01
2.962630e-01
3.197670e-01
2.395160e-01
2.532500e-01
2.699390e-01
2.895830e-01
3.121820e-01
2.307210e-01
2.438060e-01
2.596520e-01
2.782610e-01
2.996320e-01
3.200460e-01
3.427430e-01
3.697800e-01
4.011550e-01
4.368700e-01
3.223880e-01
3.440660e-01
3.705080e-01
4.017170e-01
4.376900e-01
3.197670e-01
3.402780e-01
3.658910e-01
3.966050e-01
4.324220e-01
3.121820e-01
3.313790e-01
3.559260e-01
3.858210e-01
4.210650e-01
2.996320e-01
3.173700e-01
3.406140e-01
3.693640e-01
4.036200e-01
4.368700e-01
4.744160e-01
5.152400e-01
5.593410e-01
6.067180e-01
4.376900e-01
4.738350e-01
5.143190e-01
5.591410e-01
6.083020e-01
4.324220e-01
4.666630e-01
5.062790e-01
5.512720e-01
6.016410e-01
4.210650e-01
4.528980e-01
4.911210e-01
5.357320e-01
5.867340e-01
4.036200e-01
4.325430e-01
4.688440e-01
5.125230e-01
5.635810e-01
6.067180e-01
6.662390e-01
7.256790e-01
7.850400e-01
8.443220e-01
6.083020e-01
6.705750e-01
7.328370e-01
7.950860e-01
8.573230e-01
6.016410e-01
6.654780e-01
7.295750e-01
7.939300e-01
8.585430e-01
5.867340e-01
6.509470e-01
7.158930e-01
7.815720e-01
8.479820e-01
5.635810e-01
6.269820e-01
6.917920e-01
7.580120e-01
8.256410e-01
8.443220e-01
9.266200e-01
1.002810e+00
1.072900e+00
1.136870e+00
8.573230e-01
9.468200e-01
1.029330e+00
1.104840e+00
1.173360e+00
8.585430e-01
9.555810e-01
1.045700e+00
1.128910e+00
1.205200e+00
8.479820e-01
9.529030e-01
1.051940e+00
1.145110e+00
1.232390e+00
8.256410e-01
9.387860e-01
1.048050e+00
1.153430e+00
1.254940e+00
1.136870e+00
1.195240e+00
1.243080e+00
1.280390e+00
1.307170e+00
1.173360e+00
1.243760e+00
1.301560e+00
1.346780e+00
1.379400e+00
1.205200e+00
1.288580e+00
1.356960e+00
1.410320e+00
1.448670e+00
1.232390e+00
1.329720e+00
1.409260e+00
1.471020e+00
1.514990e+00
1.254940e+00
1.367170e+00
1.458480e+00
1.528870e+00
1.578340e+00
1.307170e+00
1.281750e+00
1.238800e+00
1.178330e+00
1.100340e+00
1.379400e+00
1.354220e+00
1.317660e+00
1.269740e+00
1.210440e+00
1.448670e+00
1.417430e+00
1.379170e+00
1.333880e+00
1.281580e+00
1.514990e+00
1.471380e+00
1.423310e+00
1.370770e+00
1.313760e+00
1.578340e+00
1.516080e+00
1.450090e+00
1.380390e+00
1.306970e+00
1.100340e+00
9.924840e-01
8.915630e-01
7.975730e-01
7.105160e-01
1.210440e+00
1.117010e+00
1.024250e+00
9.321800e-01
8.407900e-01
1.281580e+00
1.196090e+00
1.108020e+00
1.017360e+00
9.241220e-01
1.313760e+00
1.229750e+00
1.142870e+00
1.053120e+00
9.605110e-01
1.306970e+00
1.217970e+00
1.128790e+00
1.039460e+00
9.499580e-01
7.105160e-01
6.356850e-01
5.716490e-01
5.184090e-01
4.759640e-01
8.407900e-01
7.567270e-01
6.803230e-01
6.115780e-01
5.504930e-01
9.241220e-01
8.355970e-01
7.515460e-01
6.719690e-01
5.968650e-01
9.605110e-01
8.722960e-01
7.853190e-01
6.995800e-01
6.150800e-01
9.499580e-01
8.668220e-01
7.816400e-01
6.944120e-01
6.051390e-01
4.759640e-01
4.472520e-01
4.182240e-01
3.888800e-01
3.592190e-01
5.504930e-01
5.079120e-01
4.673180e-01
4.287120e-01
3.920920e-01
5.968650e-01
5.444390e-01
4.958330e-01
4.510450e-01
4.100770e-01
6.150800e-01
5.568340e-01
5.037670e-01
4.558810e-01
4.131740e-01
6.051390e-01
5.450950e-01
4.911220e-01
4.432180e-01
4.013840e-01
3.592190e-01
3.339870e-01
3.102990e-01
2.881560e-01
2.675580e-01
3.920920e-01
3.611440e-01
3.327390e-01
3.068780e-01
2.835600e-01
4.100770e-01
3.752960e-01
3.438210e-01
3.156530e-01
2.907920e-01
4.131740e-01
3.764430e-01
3.435450e-01
3.144830e-01
2.892550e-01
4.013840e-01
3.645840e-01
3.319120e-01
3.033660e-01
2.789480e-01
2.675580e-01
2.506080e-01
2.345820e-01
2.194810e-01
2.053050e-01
2.835600e-01
2.647430e-01
2.470990e-01
2.306310e-01
2.153360e-01
2.907920e-01
2.710910e-01
2.526910e-01
2.355900e-01
2.197890e-01
2.892550e-01
2.696550e-01
2.513560e-01
2.343600e-01
2.186650e-01
2.789480e-01
2.604320e-01
2.430960e-01
2.269390e-01
2.119630e-01
2.053050e-01
1.929650e-01
1.814760e-01
1.708360e-01
1.610470e-01
2.153360e-01
2.020010e-01
1.896630e-01
1.783220e-01
1.679780e-01
2.197890e-01
2.059310e-01
1.931760e-01
1.815260e-01
1.709800e-01
2.186650e-01
2.047550e-01
1.920170e-01
1.804500e-01
1.700550e-01
2.119630e-01
1.984740e-01
1.861850e-01
1.750940e-01
1.652020e-01
1.610470e-01
1.521400e-01
1.438390e-01
1.361420e-01
1.290510e-01
1.679780e-01
1.586060e-01
1.498860e-01
1.418200e-01
1.344060e-01
1.709800e-01
1.614300e-01
1.525620e-01
1.443780e-01
1.368760e-01
1.700550e-01
1.606120e-01
1.518660e-01
1.438160e-01
1.364620e-01
1.652020e-01
1.561540e-01
1.477980e-01
1.401340e-01
1.331620e-01
1.290510e-01
1.218720e-01
1.155830e-01
1.101850e-01
1.056770e-01
1.344060e-01
1.271920e-01
1.208260e-01
1.153080e-01
1.106390e-01
1.368760e-01
1.297730e-01
1.234540e-01
1.179190e-01
1.131680e-01
1.364620e-01
1.296170e-01
1.234690e-01
1.180180e-01
1.132630e-01
1.331620e-01
1.267230e-01
1.208710e-01
1.156050e-01
1.109260e-01
9.604590e-02
1.002870e-01
1.045460e-01
1.088230e-01
1.131180e-01
9.458900e-02
9.848530e-02
1.024460e-01
1.064700e-01
1.105590e-01
9.299440e-02
9.664710e-02
1.003690e-01
1.041600e-01
1.080200e-01
9.126190e-02
9.477200e-02
9.831500e-02
1.018910e-01
1.054990e-01
8.939170e-02
9.286010e-02
9.628400e-02
9.966350e-02
1.029990e-01
1.131180e-01
1.174450e-01
1.217380e-01
1.259970e-01
1.302230e-01
1.105590e-01
1.147550e-01
1.189820e-01
1.232400e-01
1.275300e-01
1.080200e-01
1.120490e-01
1.161660e-01
1.203720e-01
1.246670e-01
1.054990e-01
1.093260e-01
1.132910e-01
1.173930e-01
1.216340e-01
1.029990e-01
1.065870e-01
1.103550e-01
1.143040e-01
1.184320e-01
1.302230e-01
1.347610e-01
1.399060e-01
1.456580e-01
1.520190e-01
1.275300e-01
1.320830e-01
1.371810e-01
1.428230e-01
1.490090e-01
1.246670e-01
1.291900e-01
1.341970e-01
1.396900e-01
1.456660e-01
1.216340e-01
1.260810e-01
1.309560e-01
1.362590e-01
1.419900e-01
1.184320e-01
1.227560e-01
1.274550e-01
1.325300e-01
1.379810e-01
1.520190e-01
1.587810e-01
1.663870e-01
1.748390e-01
1.841360e-01
1.490090e-01
1.555460e-01
1.628790e-01
1.710110e-01
1.799400e-01
1.456660e-01
1.519400e-01
1.589610e-01
1.667290e-01
1.752440e-01
1.419900e-01
1.479650e-01
1.546320e-01
1.619940e-01
1.700490e-01
1.379810e-01
1.436190e-01
1.498930e-01
1.568050e-01
1.643530e-01
1.841360e-01
1.936590e-01
2.045980e-01
2.169520e-01
2.307210e-01
1.799400e-01
1.890790e-01
1.995310e-01
2.112940e-01
2.243690e-01
1.752440e-01
1.839230e-01
1.938170e-01
2.049270e-01
2.172530e-01
1.700490e-01
1.781890e-01
1.874570e-01
1.978510e-01
2.093730e-01
1.643530e-01
1.718790e-01
1.804500e-01
1.900670e-01
2.007290e-01
2.307210e-01
2.438060e-01
2.596520e-01
2.782610e-01
2.996320e-01
2.243690e-01
2.368650e-01
2.519090e-01
2.695010e-01
2.896410e-01
2.172530e-01
2.289860e-01
2.430940e-01
2.595760e-01
2.784340e-01
2.093730e-01
2.201700e-01
2.332080e-01
2.484880e-01
2.660100e-01
2.007290e-01
2.104160e-01
2.222520e-01
2.362370e-01
2.523700e-01
2.996320e-01
3.173700e-01
3.406140e-01
3.693640e-01
4.036200e-01
2.896410e-01
3.057370e-01
3.276180e-01
3.552860e-01
3.887400e-01
2.784340e-01
2.926720e-01
3.129770e-01
3.393500e-01
3.717900e-01
2.660100e-01
2.781750e-01
2.966900e-01
3.215550e-01
3.527700e-01
2.523700e-01
2.622470e-01
2.787580e-01
3.019030e-01
3.316810e-01
4.036200e-01
4.325430e-01
4.688440e-01
5.125230e-01
5.635810e-01
3.887400e-01
4.141230e-01
4.480650e-01
4.905660e-01
5.416270e-01
3.717900e-01
3.921310e-01
4.230220e-01
4.644610e-01
5.164490e-01
3.527700e-01
3.665690e-01
3.937150e-01
4.342080e-01
4.880490e-01
3.316810e-01
3.374350e-01
3.601440e-01
3.998070e-01
4.564250e-01
5.635810e-01
6.269820e-01
6.917920e-01
7.580120e-01
8.256410e-01
5.416270e-01
6.052610e-01
6.690540e-01
7.330050e-01
7.971150e-01
5.164490e-01
5.757550e-01
6.351280e-01
6.945690e-01
7.540780e-01
4.880490e-01
5.384620e-01
5.900130e-01
6.427020e-01
6.965290e-01
4.564250e-01
4.933830e-01
5.337100e-01
5.774050e-01
6.244690e-01
8.256410e-01
9.387860e-01
1.048050e+00
1.153430e+00
1.254940e+00
7.971150e-01
9.393920e-01
1.071320e+00
1.192900e+00
1.304120e+00
7.540780e-01
9.198270e-01
1.061810e+00
1.180010e+00
1.274450e+00
6.965290e-01
8.800910e-01
1.019510e+00
1.114790e+00
1.165930e+00
6.244690e-01
8.201830e-01
9.444350e-01
9.972270e-01
9.785590e-01
1.254940e+00
1.367170e+00
1.458480e+00
1.528870e+00
1.578340e+00
1.304120e+00
1.407810e+00
1.494240e+00
1.563410e+00
1.615320e+00
1.274450e+00
1.366320e+00
1.446670e+00
1.515530e+00
1.572890e+00
1.165930e+00
1.242690e+00
1.315800e+00
1.385240e+00
1.451040e+00
9.785590e-01
1.036940e+00
1.101600e+00
1.172540e+00
1.249770e+00
1.578340e+00
1.516080e+00
1.450090e+00
1.380390e+00
1.306970e+00
1.615320e+00
1.553880e+00
1.483830e+00
1.405140e+00
1.317840e+00
1.572890e+00
1.508150e+00
1.438000e+00
1.362430e+00
1.281440e+00
1.451040e+00
1.378890e+00
1.312630e+00
1.252260e+00
1.197780e+00
1.249770e+00
1.166080e+00
1.107700e+00
1.074620e+00
1.066850e+00
1.306970e+00
1.217970e+00
1.128790e+00
1.039460e+00
9.499580e-01
1.317840e+00
1.205640e+00
1.098060e+00
9.950910e-01
8.967380e-01
1.281440e+00
1.162290e+00
1.047480e+00
9.370060e-01
8.308780e-01
1.197780e+00
1.087900e+00
9.770460e-01
8.652040e-01
7.523780e-01
1.066850e+00
9.824910e-01
8.867690e-01
7.796850e-01
6.612380e-01
9.499580e-01
8.668220e-01
7.816400e-01
6.944120e-01
6.051390e-01
8.967380e-01
8.186230e-01
7.377360e-01
6.540780e-01
5.676470e-01
8.308780e-01
7.593740e-01
6.845630e-01
6.064440e-01
5.250160e-01
7.523780e-01
6.890750e-01
6.221190e-01
5.515100e-01
4.772470e-01
6.612380e-01
6.077260e-01
5.504060e-01
4.892770e-01
4.243380e-01
6.051390e-01
5.450950e-01
4.911220e-01
4.432180e-01
4.013840e-01
5.676470e-01
5.136340e-01
4.651100e-01
4.220740e-01
3.845260e-01
5.250160e-01
4.790160e-01
4.373040e-01
3.998800e-01
3.667440e-01
4.772470e-01
4.412400e-01
4.077030e-01
3.766360e-01
3.480390e-01
4.243380e-01
4.003070e-01
3.763090e-01
3.523430e-01
3.284090e-01
4.013840e-01
3.645840e-01
3.319120e-01
3.033660e-01
2.789480e-01
3.845260e-01
3.492460e-01
3.180520e-01
2.909450e-01
2.679250e-01
3.667440e-01
3.330870e-01
3.034930e-01
2.779630e-01
2.564960e-01
3.480390e-01
3.161090e-01
2.882360e-01
2.644210e-01
2.446640e-01
3.284090e-01
2.983100e-01
2.722800e-01
2.503180e-01
2.324260e-01
2.789480e-01
2.604320e-01
2.430960e-01
2.269390e-01
2.119630e-01
2.679250e-01
2.514500e-01
2.356950e-01
2.206580e-01
2.063410e-01
2.564960e-01
2.421110e-01
2.279690e-01
2.140700e-01
2.004150e-01
2.446640e-01
2.324140e-01
2.199180e-01
2.071740e-01
1.941840e-01
2.324260e-01
2.223600e-01
2.115420e-01
1.999710e-01
1.876480e-01
2.119630e-01
1.984740e-01
1.861850e-01
1.750940e-01
1.652020e-01
2.063410e-01
1.932590e-01
1.814130e-01
1.708030e-01
1.614290e-01
2.004150e-01
1.877780e-01
1.764080e-01
1.663050e-01
1.574680e-01
1.941840e-01
1.820310e-01
1.711690e-01
1.615980e-01
1.533170e-01
1.876480e-01
1.760180e-01
1.656960e-01
1.566820e-01
1.489760e-01
1.652020e-01
1.561540e-01
1.477980e-01
1.401340e-01
1.331620e-01
1.614290e-01
1.528440e-01
1.448900e-01
1.375650e-01
1.308720e-01
1.574680e-01
1.493590e-01
1.418140e-01
1.348360e-01
1.284220e-01
1.533170e-01
1.456960e-01
1.385720e-01
1.319440e-01
1.258120e-01
1.489760e-01
1.418580e-01
1.351620e-01
1.288910e-01
1.230430e-01
1.331620e-01
1.267230e-01
1.208710e-01
1.156050e-01
1.109260e-01
1.308720e-01
1.246980e-01
1.190840e-01
1.140290e-01
1.095320e-01
1.284220e-01
1.225070e-01
1.171300e-01
1.122930e-01
1.079940e-01
1.258120e-01
1.201470e-01
1.150090e-01
1.103970e-01
1.063120e-01
1.230430e-01
1.176210e-01
1.127210e-01
1.083420e-01
1.044860e-01
8.939170e-02
9.286010e-02
9.628400e-02
9.966350e-02
1.029990e-01
8.740010e-02
9.066630e-02
9.390920e-02
9.712850e-02
1.003240e-01
8.530680e-02
8.836880e-02
9.143030e-02
9.449120e-02
9.755150e-02
8.311190e-02
8.596750e-02
8.884740e-02
9.175150e-02
9.467980e-02
8.081530e-02
8.346250e-02
8.616050e-02
8.890950e-02
9.170940e-02
1.029990e-01
1.065870e-01
1.103550e-01
1.143040e-01
1.184320e-01
1.003240e-01
1.037190e-01
1.073080e-01