<?xml version="1.0"?>
<VTKFile type="UnstructuredGrid" version="0.1" byte_order="LittleEndian" compressor="vtkZLibDataCompressor">
<UnstructuredGrid>
<Piece NumberOfPoints="10000" NumberOfCells="6400">
<Points>
<DataArray type="Float32" NumberOfComponents="3" format="ascii">
-3.360000e+00 0.000000e+00 0.000000e+00
-3.276000e+00 0.000000e+00 0.000000e+00
-3.192000e+00 0.000000e+00 0.000000e+00
-3.108000e+00 0.000000e+00 0.000000e+00
-3.024000e+00 0.000000e+00 0.000000e+00
-3.360000e+00 6.412500e-02 0.000000e+00
-3.276000e+00 6.412500e-02 0.000000e+00
-3.192000e+00 6.412500e-02 0.000000e+00
-3.108000e+00 6.412500e-02 0.000000e+00
-3.024000e+00 6.412500e-02 0.000000e+00
-3.360000e+00 1.282500e-01 0.000000e+00
-3.276000e+00 1.282500e-01 0.000000e+00
-3.192000e+00 1.282500e-01 0.000000e+00
-3.108000e+00 1.282500e-01 0.000000e+00
-3.024000e+00 1.282500e-01 0.000000e+00
-3.360000e+00 1.923750e-01 0.000000e+00
-3.276000e+00 1.923750e-01 0.000000e+00
-3.192000e+00 1.923750e-01 0.000000e+00
-3.108000e+00 1.923750e-01 0.000000e+00
-3.024000e+00 1.923750e-01 0.000000e+00
-3.360000e+00 2.565000e-01 0.000000e+00
-3.276000e+00 2.565000e-01 0.000000e+00
-3.192000e+00 2.565000e-01 0.000000e+00
-3.108000e+00 2.565000e-01 0.000000e+00
-3.024000e+00 2.565000e-01 0.000000e+00
-3.024000e+00 0.000000e+00 0.000000e+00
-2.940000e+00 0.000000e+00 0.000000e+00
-2.856000e+00 0.000000e+00 0.000000e+00
-2.772000e+00 0.000000e+00 0.000000e+00
-2.688000e+00 0.000000e+00 0.000000e+00
-3.024000e+00 6.412500e-02 0.000000e+00
-2.940000e+00 6.412500e-02 0.000000e+00
-2.856000e+00 6.412500e-02 0.000000e+00
-2.772000e+00 6.412500e-02 0.000000e+00
-2.688000e+00 6.412500e-02 0.000000e+00
-3.024000e+00 1.282500e-01 0.000000e+00
-2.940000e+00 1.282500e-01 0.000000e+00
-2.856000e+00 1.282500e-01 0.000000e+00
-2.772000e+00 1.282500e-01 0.000000e+00
-2.688000e+00 1.282500e-01 0.000000e+00
-3.024000e+00 1.923750e-01 0.000000e+00
-2.940000e+00 1.923750e-01 0.000000e+00
-2.856000e+00 1.923750e-01 0.000000e+00
-2.772000e+00 1.923750e-01 0.000000e+00
-2.688000e+00 1.923750e-01 0.000000e+00
-3.024000e+00 2.565000e-01 0.000000e+00
-2.940000e+00 2.565000e-01 0.000000e+00
-2.856000e+00 2.565000e-01 0.000000e+00
-2.772000e+00 2.565000e-01 0.000000e+00
-2.688000e+00 2.565000e-01 0.000000e+00
-2.688000e+00 0.000000e+00 0.000000e+00
-2.604000e+00 0.000000e+00 0.000000e+00
-2.520000e+00 0.000000e+00 0.000000e+00
-2.436000e+00 0.000000e+00 0.000000e+00
-2.352000e+00 0.000000e+00 0.000000e+00
-2.688000e+00 6.412500e-02 0.000000e+00
-2.604000e+00 6.412500e-02 0.000000e+00
-2.520000e+00 6.412500e-02 0.000000e+00
-2.436000e+00 6.412500e-02 0.000000e+00
-2.352000e+00 6.412500e-02 0.000000e+00
-2.688000e+00 1.282500e-01 0.000000e+00
-2.604000e+00 1.282500e-01 0.000000e+00
-2.520000e+00 1.282500e-01 0.000000e+00
-2.436000e+00 1.282500e-01 0.000000e+00
-2.352000e+00 1.282500e-01 0.000000e+00
-2.688000e+00 1.923750e-01 0.000000e+00
-2.604000e+00 1.923750e-01 0.000000e+00
-2.520000e+00 1.923750e-01 0.000000e+00
-2.436000e+00 1.923750e-01 0.000000e+00
-2.352000e+00 1.923750e-01 0.000000e+00
-2.688000e+00 2.565000e-01 0.000000e+00
-2.604000e+00 2.565000e-01 0.000000e+00
-2.520000e+00 2.565000e-01 0.000000e+00
-2.436000e+00 2.565000e-01 0.000000e+00
-2.352000e+00 2.565000e-01 0.000000e+00
-2.352000e+00 0.000000e+00 0.000000e+00
-2.268000e+00 0.000000e+00 0.000000e+00
-2.184000e+00 0.000000e+00 0.000000e+00
-2.100000e+00 0.000000e+00 0.000000e+00
-2.016000e+00 0.000000e+00 0.000000e+00
-2.352000e+00 6.412500e-02 0.000000e+00
-2.268000e+00 6.412500e-02 0.000000e+00
-2.184000e+00 6.412500e-02 0.000000e+00
-2.100000e+00 6.412500e-02 0.000000e+00
-2.016000e+00 6.412500e-02 0.000000e+00
-2.352000e+00 1.282500e-01 0.000000e+00
-2.268000e+00 1.282500e-01 0.000000e+00
-2.184000e+00 1.282500e-01 0.000000e+00
-2.100000e+00 1.282500e-01 0.000000e+00
-2.016000e+00 1.282500e-01 0.000000e+00
-2.352000e+00 1.923750e-01 0.000000e+00
-2.268000e+00 1.923750e-01 0.000000e+00
-2.184000e+00 1.923750e-01 0.000000e+00
-2.100000e+00 1.923750e-01 0.000000e+00
-2.016000e+00 1.923750e-01 0.000000e+00
-2.352000e+00 2.565000e-01 0.000000e+00
-2.268000e+00 2.565000e-01 0.000000e+00
-2.184000e+00 2.565000e-01 0.000000e+00
-2.100000e+00 2.565000e-01 0.000000e+00
-2.016000e+00 2.565000e-01 0.000000e+00
-2.016000e+00 0.000000e+00 0.000000e+00
-1.932000e+00 0.000000e+00 0.000000e+00
-1.848000e+00 0.000000e+00 0.000000e+00
-1.764000e+00 0.000000e+00 0.000000e+00
-1.680000e+00 0.000000e+00 0.000000e+00
-2.016000e+00 6.412500e-02 0.000000e+00
-1.932000e+00 6.412500e-02 0.000000e+00
-1.848000e+00 6.412500e-02 0.000000e+00
-1.764000e+00 6.412500e-02 0.000000e+00
-1.680000e+00 6.412500e-02 0.000000e+00
-2.016000e+00 1.282500e-01 0.000000e+00
-1.932000e+00 1.282500e-01 0.000000e+00
-1.848000e+00 1.282500e-01 0.000000e+00
-1.764000e+00 1.282500e-01 0.000000e+00
-1.680000e+00 1.282500e-01 0.000000e+00
-2.016000e+00 1.923750e-01 0.000000e+00
-1.932000e+00 1.923750e-01 0.000000e+00
-1.848000e+00 1.923750e-01 0.000000e+00
-1.764000e+00 1.923750e-01 0.000000e+00
-1.680000e+00 1.923750e-01 0.000000e+00
-2.016000e+00 2.565000e-01 0.000000e+00
-1.932000e+00 2.565000e-01 0.000000e+00
-1.848000e+00 2.565000e-01 0.000000e+00
-1.764000e+00 2.565000e-01 0.000000e+00
-1.680000e+00 2.565000e-01 0.000000e+00
-1.680000e+00 0.000000e+00 0.000000e+00
-1.596000e+00 0.000000e+00 0.000000e+00
-1.512000e+00 0.000000e+00 0.000000e+00
-1.428000e+00 0.000000e+00 0.000000e+00
-1.344000e+00 0.000000e+00 0.000000e+00
-1.680000e+00 6.412500e-02 0.000000e+00
-1.596000e+00 6.412500e-02 0.000000e+00
-1.512000e+00 6.412500e-02 0.000000e+00
-1.428000e+00 6.412500e-02 0.000000e+00
-1.344000e+00 6.412500e-02 0.000000e+00
-1.680000e+00 1.282500e-01 0.000000e+00
-1.596000e+00 1.282500e-01 0.000000e+00
-1.512000e+00 1.282500e-01 0.000000e+00
-1.428000e+00 1.282500e-01 0.000000e+00
-1.344000e+00 1.282500e-01 0.000000e+00
-1.680000e+00 1.923750e-01 0.000000e+00
-1.596000e+00 1.923750e-01 0.000000e+00
-1.512000e+00 1.923750e-01 0.000000e+00
-1.428000e+00 1.923750e-01 0.000000e+00
-1.344000e+00 1.923750e-01 0.000000e+00
-1.680000e+00 2.565000e-01 0.000000e+00
-1.596000e+00 2.565000e-01 0.000000e+00
-1.512000e+00 2.565000e-01 0.000000e+00
-1.428000e+00 2.565000e-01 0.000000e+00
-1.344000e+00 2.565000e-01 0.000000e+00
-1.344000e+00 0.000000e+00 0.000000e+00
-1.260000e+00 0.000000e+00 0.000000e+00
-1.176000e+00 0.000000e+00 0.000000e+00
-1.092000e+00 0.000000e+00 0.000000e+00
-1.008000e+00 0.000000e+00 0.000000e+00
-1.344000e+00 6.412500e-02 0.000000e+00
-1.260000e+00 6.412500e-02 0.000000e+00
-1.176000e+00 6.412500e-02 0.000000e+00
-1.092000e+00 6.412500e-02 0.000000e+00
-1.008000e+00 6.412500e-02 0.000000e+00
-1.344000e+00 1.282500e-01 0.000000e+00
-1.260000e+00 1.282500e-01 0.000000e+00
-1.176000e+00 1.282500e-01 0.000000e+00
-1.092000e+00 1.282500e-01 0.000000e+00
-1.008000e+00 1.282500e-01 0.000000e+00
-1.344000e+00 1.923750e-01 0.000000e+00
-1.260000e+00 1.923750e-01 0.000000e+00
-1.176000e+00 1.923750e-01 0.000000e+00
-1.092000e+00 1.923750e-01 0.000000e+00
-1.008000e+00 1.923750e-01 0.000000e+00
-1.344000e+00 2.565000e-01 0.000000e+00
-1.260000e+00 2.565000e-01 0.000000e+00
-1.176000e+00 2.565000e-01 0.000000e+00
-1.092000e+00 2.565000e-01 0.000000e+00
-1.008000e+00 2.565000e-01 0.000000e+00
-1.008000e+00 0.000000e+00 0.000000e+00
-9.240000e-01 0.000000e+00 0.000000e+00
-8.400000e-01 0.000000e+00 0.000000e+00
-7.560000e-01 0.000000e+00 0.000000e+00
-6.720000e-01 0.000000e+00 0.000000e+00
-1.008000e+00 6.412500e-02 0.000000e+00
-9.240000e-01 6.412500e-02 0.000000e+00
-8.400000e-01 6.412500e-02 0.000000e+00
-7.560000e-01 6.412500e-02 0.000000e+00
-6.720000e-01 6.412500e-02 0.000000e+00
-1.008000e+00 1.282500e-01 0.000000e+00
-9.240000e-01 1.282500e-01 0.000000e+00
-8.400000e-01 1.282500e-01 0.000000e+00
-7.560000e-01 1.282500e-01 0.000000e+00
-6.720000e-01 1.282500e-01 0.000000e+00
-1.008000e+00 1.923750e-01 0.000000e+00
-9.240000e-01 1.923750e-01 0.000000e+00
-8.400000e-01 1.923750e-01 0.000000e+00
-7.560000e-01 1.923750e-01 0.000000e+00
-6.720000e-01 1.923750e-01 0.000000e+00
-1.008000e+00 2.565000e-01 0.000000e+00
-9.240000e-01 2.565000e-01 0.000000e+00
-8.400000e-01 2.565000e-01 0.000000e+00
-7.560000e-01 2.565000e-01 0.000000e+00
-6.720000e-01 2.565000e-01 0.000000e+00
-6.720000e-01 0.000000e+00 0.000000e+00
-5.880000e-01 0.000000e+00 0.000000e+00
-5.040000e-01 0.000000e+00 0.000000e+00
-4.200000e-01 0.000000e+00 0.000000e+00
-3.360000e-01 0.000000e+00 0.000000e+00
-6.720000e-01 6.412500e-02 0.000000e+00
-5.880000e-01 6.412500e-02 0.000000e+00
-5.040000e-01 6.412500e-02 0.000000e+00
-4.200000e-01 6.412500e-02 0.000000e+00
-3.360000e-01 6.412500e-02 0.000000e+00
-6.720000e-01 1.282500e-01 0.000000e+00
-5.880000e-01 1.282500e-01 0.000000e+00
-5.040000e-01 1.282500e-01 0.000000e+00
-4.200000e-01 1.282500e-01 0.000000e+00
-3.360000e-01 1.282500e-01 0.000000e+00
-6.720000e-01 1.923750e-01 0.000000e+00
-5.880000e-01 1.923750e-01 0.000000e+00
-5.040000e-01 1.923750e-01 0.000000e+00
-4.200000e-01 1.923750e-01 0.000000e+00
-3.360000e-01 1.923750e-01 0.000000e+00
-6.720000e-01 2.565000e-01 0.000000e+00
-5.880000e-01 2.565000e-01 0.000000e+00
-5.040000e-01 2.565000e-01 0.000000e+00
-4.200000e-01 2.565000e-01 0.000000e+00
-3.360000e-01 2.565000e-01 0.000000e+00
-3.360000e-01 0.000000e+00 0.000000e+00
-2.520000e-01 0.000000e+00 0.000000e+00
-1.680000e-01 0.000000e+00 0.000000e+00
-8.400000e-02 0.000000e+00 0.000000e+00
-4.440890e-16 0.000000e+00 0.000000e+00
-3.360000e-01 6.412500e-02 0.000000e+00
-2.520000e-01 6.412500e-02 0.000000e+00
-1.680000e-01 6.412500e-02 0.000000e+00
-8.400000e-02 6.412500e-02 0.000000e+00
-4.440890e-16 6.412500e-02 0.000000e+00
-3.360000e-01 1.282500e-01 0.000000e+00
-2.520000e-01 1.282500e-01 0.000000e+00
-1.680000e-01 1.282500e-01 0.000000e+00
-8.400000e-02 1.282500e-01 0.000000e+00
-4.440890e-16 1.282500e-01 0.000000e+00
-3.360000e-01 1.923750e-01 0.000000e+00
-2.520000e-01 1.923750e-01 0.000000e+00
-1.680000e-01 1.923750e-01 0.000000e+00
[...]
<PointData>
<DataArray type="Float32" Name="V1" format="ascii">
0.000000e+00
0.000000e+00
0.000000e+00
0.000000e+00
0.000000e+00
6.347820e-02
5.966330e-02
5.537890e-02
5.062500e-02
4.540150e-02
1.013490e-01
9.777870e-02
9.296150e-02
8.689690e-02
7.958490e-02
1.136110e-01
1.143460e-01
1.127480e-01
1.088160e-01
1.025500e-01
1.002660e-01
1.093660e-01
1.147380e-01
1.163810e-01
1.142970e-01
0.000000e+00
0.000000e+00
0.000000e+00
0.000000e+00
0.000000e+00
4.540150e-02
3.971880e-02
3.543580e-02
3.255270e-02
3.106930e-02
7.958490e-02
7.133880e-02
6.496790e-02
6.047230e-02
5.785190e-02
1.025500e-01
9.486000e-02
8.859630e-02
8.375880e-02
8.034770e-02
1.142970e-01
1.102830e-01
1.063210e-01
1.024120e-01
9.855670e-02
0.000000e+00
0.000000e+00
0.000000e+00
0.000000e+00
0.000000e+00
3.106930e-02
2.980950e-02
2.884680e-02
2.818100e-02
2.781230e-02
5.785190e-02
5.572180e-02
5.414630e-02
5.312550e-02
5.265930e-02
8.034770e-02
7.773680e-02
7.589870e-02
7.483350e-02
7.454110e-02
9.855670e-02
9.585450e-02
9.410390e-02
9.330490e-02
9.345760e-02
0.000000e+00
0.000000e+00
0.000000e+00
0.000000e+00
0.000000e+00
2.781230e-02
2.758180e-02
2.765750e-02
2.803930e-02
2.872740e-02
5.265930e-02
5.245700e-02
5.276220e-02
5.357510e-02
5.489550e-02
7.454110e-02
7.462560e-02
7.531430e-02
7.660720e-02
7.850420e-02
9.345760e-02
9.408770e-02
9.531380e-02
9.713570e-02
9.955370e-02
0.000000e+00
0.000000e+00
0.000000e+00
0.000000e+00
0.000000e+00
2.872740e-02
2.957760e-02
3.065110e-02
3.194790e-02
3.346810e-02
5.489550e-02
5.651800e-02
5.854590e-02
6.097920e-02
6.381800e-02
7.850420e-02
8.082110e-02
8.368430e-02
8.709380e-02
9.104970e-02
9.955370e-02
1.024870e-01
1.060660e-01
1.102920e-01
1.151630e-01
0.000000e+00
0.000000e+00
0.000000e+00
0.000000e+00
0.000000e+00
3.346810e-02
3.520480e-02
3.731580e-02
3.980090e-02
4.266020e-02
6.381800e-02
6.703930e-02
7.090160e-02
7.540470e-02
8.054870e-02
9.104970e-02
9.550350e-02
1.007570e-01
1.068110e-01
1.136650e-01
1.151630e-01
1.205970e-01
1.268830e-01
1.340210e-01
1.420100e-01
0.000000e+00
0.000000e+00
0.000000e+00
0.000000e+00
0.000000e+00
4.266020e-02
4.579470e-02
4.955010e-02
5.392640e-02
5.892360e-02
8.054870e-02
8.616820e-02
9.283240e-02
1.005410e-01
1.092950e-01
1.136650e-01
1.211210e-01
1.298470e-01
1.398440e-01
1.511130e-01
1.420100e-01
1.506520e-01
1.605940e-01
1.718360e-01
1.843790e-01
0.000000e+00
0.000000e+00
0.000000e+00
0.000000e+00
0.000000e+00
5.892360e-02
6.415780e-02
7.049670e-02
7.794020e-02
8.648840e-02
1.092950e-01
1.184460e-01
1.294120e-01
1.421910e-01
1.567840e-01
1.511130e-01
1.628650e-01
1.767450e-01
1.927530e-01
2.108880e-01
1.843790e-01
1.974140e-01
2.124960e-01
2.296250e-01
2.488000e-01
0.000000e+00
0.000000e+00
0.000000e+00
0.000000e+00
0.000000e+00
8.648840e-02
9.503560e-02
1.052870e-01
1.172430e-01
1.309040e-01
1.567840e-01
1.714050e-01
1.887630e-01
2.088590e-01
2.316930e-01
2.108880e-01
2.291080e-01
2.504280e-01
2.748480e-01
3.023670e-01
2.488000e-01
2.681450e-01
2.902810e-01
3.152090e-01
3.429270e-01
0.000000e+00
0.000000e+00
0.000000e+00
0.000000e+00
0.000000e+00
1.309040e-01
1.449400e-01
1.603870e-01
1.772460e-01
1.955160e-01
2.316930e-01
2.553120e-01
2.811760e-01
3.092870e-01
3.396420e-01
3.023670e-01
3.311160e-01
3.623670e-01
3.961220e-01
4.323780e-01
3.429270e-01
3.723520e-01
4.039600e-01
4.377510e-01
4.737250e-01
0.000000e+00
0.000000e+00
0.000000e+00
0.000000e+00
0.000000e+00
1.955160e-01
2.169490e-01
2.369830e-01
2.556200e-01
2.728590e-01
3.396420e-01
3.754530e-01
4.092800e-01
4.411230e-01
4.709810e-01
4.323780e-01
4.755140e-01
5.168900e-01
5.565070e-01
5.943650e-01
4.737250e-01
5.171310e-01
5.598140e-01
6.017740e-01
6.430120e-01
0.000000e+00
0.000000e+00
0.000000e+00
0.000000e+00
0.000000e+00
2.728590e-01
2.942540e-01
3.099910e-01
3.200730e-01
3.244970e-01
4.709810e-01
5.080400e-01
5.367130e-01
5.569980e-01
5.688970e-01
5.943650e-01
6.413610e-01
6.801650e-01
7.107770e-01
7.331980e-01
6.430120e-01
6.942140e-01
7.403460e-01
7.814090e-01
8.174020e-01
0.000000e+00
0.000000e+00
0.000000e+00
0.000000e+00
0.000000e+00
3.244970e-01
3.206530e-01
3.106370e-01
2.944500e-01
2.720900e-01
5.688970e-01
5.683350e-01
5.576110e-01
5.367260e-01
5.056790e-01
7.331980e-01
7.430440e-01
7.409210e-01
7.268280e-01
7.007660e-01
8.174020e-01
8.447810e-01
8.605660e-01
8.647570e-01
8.573520e-01
0.000000e+00
0.000000e+00
0.000000e+00
0.000000e+00
0.000000e+00
2.720900e-01
2.333830e-01
1.968180e-01
1.623940e-01
1.301110e-01
5.056790e-01
4.462010e-01
3.869950e-01
3.280600e-01
2.693980e-01
7.007660e-01
6.384530e-01
5.705300e-01
4.970000e-01
4.178610e-01
8.573520e-01
8.101390e-01
7.474250e-01
6.692130e-01
5.755000e-01
0.000000e+00
0.000000e+00
0.000000e+00
0.000000e+00
0.000000e+00
1.301110e-01
1.036290e-01
7.871100e-02
5.535710e-02
3.356710e-02
2.693980e-01
2.173480e-01
1.682340e-01
1.220560e-01
7.881420e-02
4.178610e-01
3.411560e-01
2.685680e-01
2.000960e-01
1.357410e-01
5.755000e-01
4.750550e-01
3.797140e-01
2.894790e-01
2.043480e-01
0.000000e+00
0.000000e+00
0.000000e+00
0.000000e+00
0.000000e+00
3.356710e-02
1.980660e-02
8.017150e-03
-1.801250e-03
-9.648570e-03
7.881420e-02
5.154040e-02
2.869920e-02
1.029070e-02
-3.685060e-03
1.357410e-01
9.520130e-02
6.204620e-02
3.627590e-02
1.789050e-02
2.043480e-01
1.507890e-01
1.080580e-01
7.615430e-02
5.507820e-02
0.000000e+00
0.000000e+00
0.000000e+00
0.000000e+00
0.000000e+00
-9.648570e-03
-1.501640e-02
-1.657140e-02
-1.431370e-02
-8.243190e-03
-3.685060e-03
-1.338700e-02
-1.648640e-02
-1.298320e-02
-2.877370e-03
1.789050e-02
4.887990e-03
2.549710e-04
3.991460e-03
1.609740e-02
5.507820e-02
3.980870e-02
3.365270e-02
3.661020e-02
4.868130e-02
0.000000e+00
0.000000e+00
0.000000e+00
0.000000e+00
0.000000e+00
-8.243190e-03
-4.827530e-03
-1.400730e-03
2.037210e-03
5.486290e-03
-2.877370e-03
2.942050e-03
8.566330e-03
1.399550e-02
1.922950e-02
1.609740e-02
2.330870e-02
2.990120e-02
3.587480e-02
4.122960e-02
4.868130e-02
5.627250e-02
6.260380e-02
6.767510e-02
7.148650e-02
0.000000e+00
0.000000e+00
0.000000e+00
0.000000e+00
0.000000e+00
5.486290e-03
8.182680e-03
1.013320e-02
1.133790e-02
1.179670e-02
1.922950e-02
2.325230e-02
2.606150e-02
2.765690e-02
2.803870e-02
4.122960e-02
4.520890e-02
4.778480e-02
4.895720e-02
4.872600e-02
7.148650e-02
7.405250e-02
7.530320e-02
7.523860e-02
7.385870e-02
0.000000e+00
0.000000e+00
0.000000e+00
0.000000e+00
0.000000e+00
1.179670e-02
1.273080e-02
1.234380e-02
1.063570e-02
7.606410e-03
2.803870e-02
2.897140e-02
2.805870e-02
2.530050e-02
2.069690e-02
4.872600e-02
4.872180e-02
4.714460e-02
4.399460e-02
3.927160e-02
7.385870e-02
7.198190e-02
6.960160e-02
6.671770e-02
6.333030e-02
1.002660e-01
1.093660e-01
1.147380e-01
1.163810e-01
1.142970e-01
9.945850e-02
1.077590e-01
1.136840e-01
1.172340e-01
1.184090e-01
9.848610e-02
1.058070e-01
1.118040e-01
1.164780e-01
1.198270e-01
9.734850e-02
1.035110e-01
1.090990e-01
1.141130e-01
1.185520e-01
9.604590e-02
1.008710e-01
1.055690e-01
1.101400e-01
1.145840e-01
1.142970e-01
1.102830e-01
1.063210e-01
1.024120e-01
9.855670e-02
1.184090e-01
1.172370e-01
1.155180e-01
1.132510e-01
1.104360e-01
1.198270e-01
1.208410e-01
1.209270e-01
1.200830e-01
1.183110e-01
1.185520e-01
1.210940e-01
1.225460e-01
1.229080e-01
1.221810e-01
1.145840e-01
1.179960e-01
1.203760e-01
1.217260e-01
1.220460e-01
9.855670e-02
9.585450e-02
9.410390e-02
9.330490e-02
9.345760e-02
1.104360e-01
1.082480e-01
1.069200e-01
1.064550e-01
1.068500e-01
1.183110e-01
1.167470e-01
1.159110e-01
1.158050e-01
1.164270e-01
1.221810e-01
1.213520e-01
1.210770e-01
1.213560e-01
1.221890e-01
1.220460e-01
1.220620e-01
1.224160e-01
1.231070e-01
1.241340e-01
9.345760e-02
9.408770e-02
9.531380e-02
9.713570e-02
9.955370e-02
1.068500e-01
1.078070e-01
1.093630e-01
1.115200e-01
1.142760e-01
1.164270e-01
1.176440e-01
1.194450e-01
1.218300e-01
1.248010e-01
1.221890e-01
1.235980e-01
1.255570e-01
1.280670e-01
1.311260e-01
1.241340e-01
1.256700e-01
1.277020e-01
1.302300e-01
1.332540e-01
9.955370e-02
1.024870e-01
1.060660e-01
1.102920e-01
1.151630e-01
1.142760e-01
1.175390e-01
1.214670e-01
1.260600e-01
1.313170e-01
1.248010e-01
1.282580e-01
1.323760e-01
1.371540e-01
1.425920e-01
1.311260e-01
1.346440e-01
1.387940e-01
1.435750e-01
1.489890e-01
1.332540e-01
1.366970e-01
1.407200e-01
1.453230e-01
1.505060e-01
1.151630e-01
1.205970e-01
1.268830e-01
1.340210e-01
1.420100e-01
1.313170e-01
1.371360e-01
1.437990e-01
1.513060e-01
1.596550e-01
1.425920e-01
1.485730e-01
1.553720e-01
1.629880e-01
1.714220e-01
1.489890e-01
1.549080e-01
1.616020e-01
1.690690e-01
1.773100e-01
1.505060e-01
1.561410e-01
1.624880e-01
1.695480e-01
1.773200e-01
1.420100e-01
1.506520e-01
1.605940e-01
1.718360e-01
1.843790e-01
1.596550e-01
1.685840e-01
1.787750e-01
1.902280e-01
2.029420e-01
1.714220e-01
1.803630e-01
1.905120e-01
2.018690e-01
2.144350e-01
1.773100e-01
1.859870e-01
1.958040e-01
2.067600e-01
2.188560e-01
1.773200e-01
1.854580e-01
1.946520e-01
2.049010e-01
2.162060e-01
1.843790e-01
1.974140e-01
2.124960e-01
2.296250e-01
2.488000e-01
2.029420e-01
2.159720e-01
2.310050e-01
2.480430e-01
2.670840e-01
2.144350e-01
2.271620e-01
2.418450e-01
2.584840e-01
2.770790e-01
2.188560e-01
2.309850e-01
2.450160e-01
2.609490e-01
2.787850e-01
2.162060e-01
2.274410e-01
2.405180e-01
2.554390e-01
2.722020e-01
2.488000e-01
2.681450e-01
2.902810e-01
3.152090e-01
3.429270e-01
2.670840e-01
2.859460e-01
3.076820e-01
3.322900e-01
3.597700e-01
2.770790e-01
2.951540e-01
3.162030e-01
3.402280e-01
3.672270e-01
2.787850e-01
2.957670e-01
3.158460e-01
3.390240e-01
3.652980e-01
2.722020e-01
2.877860e-01
3.066110e-01
3.286770e-01
3.539830e-01
3.429270e-01
3.723520e-01
4.039600e-01
4.377510e-01
4.737250e-01
3.597700e-01
3.884590e-01
4.197460e-01
4.536290e-01
4.901100e-01
3.672270e-01
3.948720e-01
4.255270e-01
4.591920e-01
4.958660e-01
3.652980e-01
3.915900e-01
4.213030e-01
4.544380e-01
4.909930e-01
3.539830e-01
3.786140e-01
4.070760e-01
4.393680e-01
4.754910e-01
4.737250e-01
5.171310e-01
5.598140e-01
6.017740e-01
6.430120e-01
4.901100e-01
5.344630e-01
5.785390e-01
6.223400e-01
6.658650e-01
4.958660e-01
5.407090e-01
5.856860e-01
6.307990e-01
6.760470e-01
4.909930e-01
5.358680e-01
5.812540e-01
6.271510e-01
6.735570e-01
4.754910e-01
5.199420e-01
5.652440e-01
6.113950e-01
6.583960e-01
6.430120e-01
6.942140e-01
7.403460e-01
7.814090e-01
8.174020e-01
6.658650e-01
7.224170e-01
7.739600e-01
8.204950e-01
8.620210e-01
6.760470e-01
7.374630e-01
7.938810e-01
8.453010e-01
8.917210e-01
6.735570e-01
7.393530e-01
8.001090e-01
8.558260e-01
9.065030e-01
6.583960e-01
7.280860e-01
7.926440e-01
8.520710e-01
9.063670e-01
8.174020e-01
8.447810e-01
8.605660e-01
8.647570e-01
8.573520e-01
8.620210e-01
8.988330e-01
9.251070e-01
9.408410e-01
9.460370e-01
8.917210e-01
9.364650e-01
9.714140e-01
9.965690e-01
1.011930e+00
9.065030e-01
9.576770e-01
9.994890e-01
1.031940e+00
1.055030e+00
9.063670e-01
9.624690e-01
1.009330e+00
1.046950e+00
1.075330e+00
8.573520e-01
8.101390e-01
7.474250e-01
6.692130e-01
5.755000e-01
9.460370e-01
9.158660e-01
8.689390e-01
8.052570e-01
7.248190e-01
1.011930e+00
9.941140e-01
9.601850e-01
9.101430e-01
8.439860e-01
1.055030e+00
1.044880e+00
1.021160e+00
9.838700e-01
9.330020e-01
1.075330e+00
1.068170e+00
1.051870e+00
1.026440e+00
9.918670e-01
5.755000e-01
4.750550e-01
3.797140e-01
2.894790e-01
2.043480e-01
7.248190e-01
6.154270e-01
5.065480e-01
3.981840e-01
2.903330e-01
8.439860e-01
7.357240e-01
6.223770e-01
5.039450e-01
3.804290e-01
9.330020e-01
8.359460e-01
7.271990e-01
6.067630e-01
4.746360e-01
9.918670e-01
9.160930e-01
8.210160e-01
7.066370e-01
5.729540e-01
2.043480e-01
1.507890e-01
1.080580e-01
7.615430e-02
5.507820e-02
2.903330e-01
2.240120e-01
1.702820e-01
1.291440e-01
1.005980e-01
3.804290e-01
3.021620e-01
2.376110e-01
1.867780e-01
1.496610e-01
4.746360e-01
3.852380e-01
3.100440e-01
2.490540e-01
2.022700e-01
5.729540e-01
4.732400e-01
3.875810e-01
3.159740e-01
2.584220e-01
5.507820e-02
3.980870e-02
3.365270e-02
3.661020e-02
4.868130e-02
1.005980e-01
7.801080e-02
6.674100e-02
6.678820e-02
7.815260e-02
1.496610e-01
1.190590e-01
1.017120e-01
9.762070e-02
1.067840e-01
2.022700e-01
1.629540e-01
1.385670e-01
1.291080e-01
1.345770e-01
2.584220e-01
2.096950e-01
1.773040e-01
1.612490e-01
1.615300e-01
4.868130e-02
5.627250e-02
6.260380e-02
6.767510e-02
7.148650e-02
7.815260e-02
8.576260e-02
9.155140e-02
9.551900e-02
9.766530e-02
1.067840e-01
1.134700e-01
1.180300e-01
1.204670e-01
1.207790e-01
1.345770e-01
1.393940e-01
1.420410e-01
1.425190e-01
1.408280e-01
1.615300e-01
1.635340e-01
1.635830e-01
1.616750e-01
1.578110e-01
7.148650e-02
7.405250e-02
7.530320e-02
7.523860e-02
7.385870e-02
9.766530e-02
9.861150e-02
9.835940e-02
9.690910e-02
9.426050e-02
1.207790e-01
1.199690e-01
1.181460e-01
1.153120e-01
1.114660e-01
1.408280e-01
1.381240e-01
1.346640e-01
1.304470e-01
1.254740e-01
1.578110e-01
1.530770e-01
1.479120e-01
1.423150e-01
1.362860e-01
7.385870e-02
7.198190e-02
6.960160e-02
6.671770e-02
6.333030e-02
9.426050e-02
9.152500e-02
8.840420e-02
8.489810e-02
8.100660e-02
1.114660e-01
1.079160e-01
1.041060e-01
1.000340e-01
9.570120e-02
1.254740e-01
1.211550e-01
1.167060e-01
1.121250e-01
1.074140e-01
1.362860e-01
1.312420e-01
1.262040e-01
1.211720e-01
1.161450e-01
9.604590e-02
1.008710e-01
1.055690e-01
1.101400e-01
1.145840e-01
9.458900e-02
9.889090e-02
1.031190e-01
1.072720e-01
1.113510e-01
9.299440e-02
9.691360e-02
1.007460e-01
1.044910e-01
1.081480e-01
9.126190e-02
9.493880e-02
9.845010e-02
1.017960e-01
1.049760e-01
8.939170e-02
9.296680e-02
9.623190e-02
9.918720e-02
1.018330e-01
1.145840e-01
1.179960e-01
1.203760e-01
1.217260e-01
1.220460e-01
1.113510e-01
1.147480e-01
1.173410e-01
1.191300e-01
1.201150e-01
1.081480e-01
1.113850e-01
1.140310e-01
1.160860e-01
1.175490e-01
1.049760e-01
1.079060e-01
1.104440e-01
1.125920e-01
1.143490e-01
1.018330e-01
1.043100e-01
1.065820e-01
1.086500e-01
1.105130e-01
1.220460e-01
1.220620e-01
1.224160e-01
1.231070e-01
1.241340e-01
1.201150e-01
1.207450e-01
1.215880e-01
1.226450e-01
1.239160e-01
1.175490e-01
1.186620e-01
1.198970e-01
1.212550e-01
1.227370e-01
1.143490e-01
1.158130e-01
1.173420e-01
1.189380e-01
1.205990e-01
1.105130e-01
1.121980e-01
1.139240e-01
1.156920e-01
1.175010e-01
1.241340e-01
1.256700e-01
1.277020e-01
1.302300e-01
1.332540e-01
1.239160e-01
1.255900e-01
1.277030e-01
1.302550e-01
1.332460e-01
1.227370e-01
1.245340e-01
1.267150e-01
1.292810e-01
1.322310e-01
1.205990e-01
1.225020e-01
1.247380e-01
1.273070e-01
1.302090e-01
1.175010e-01
1.194940e-01
1.217720e-01
1.243340e-01
1.271800e-01
1.332540e-01
1.366970e-01
1.407200e-01
1.453230e-01
1.505060e-01
1.332460e-01
1.366180e-01
1.405280e-01
1.449770e-01
1.499640e-01
1.322310e-01
1.355240e-01
1.393140e-01
1.436010e-01
1.483850e-01
1.302090e-01
1.334150e-01
1.370780e-01
1.411950e-01
1.457680e-01
1.271800e-01
1.302920e-01
1.338180e-01
1.377590e-01
1.421140e-01
1.505060e-01
1.561410e-01
1.624880e-01
1.695480e-01
1.773200e-01
1.499640e-01
1.553510e-01
1.614130e-01
1.681490e-01
1.755600e-01
1.483850e-01
1.535170e-01
1.592850e-01
1.656900e-01
1.727300e-01
1.457680e-01
1.506380e-01
1.561050e-01
1.621690e-01
1.688290e-01
1.421140e-01
1.467160e-01
1.518730e-01
1.575870e-01
1.638570e-01
1.773200e-01
1.854580e-01
1.946520e-01
2.049010e-01
2.162060e-01
1.755600e-01
1.832790e-01
1.920090e-01
2.017490e-01
2.125000e-01
1.727300e-01
1.800180e-01
1.882660e-01
1.974750e-01
2.076450e-01
1.688290e-01
1.756730e-01
1.834240e-01
1.920800e-01
2.016420e-01
1.638570e-01
1.702460e-01
1.774810e-01
1.855630e-01
1.944900e-01
2.162060e-01
2.274410e-01
2.405180e-01
2.554390e-01
2.722020e-01
2.125000e-01
2.231000e-01
2.355140e-01
2.497410e-01
2.657810e-01
2.076450e-01
2.175820e-01
2.292780e-01
2.427330e-01
2.579470e-01
2.016420e-01
2.108870e-01
2.218120e-01
2.344160e-01
2.487010e-01
1.944900e-01
2.030140e-01
2.131140e-01
2.247890e-01
2.380410e-01
2.722020e-01
2.877860e-01
3.066110e-01
3.286770e-01
3.539830e-01
2.657810e-01
2.802740e-01
2.981990e-01
3.195550e-01
3.443420e-01
2.579470e-01
2.712740e-01
2.881490e-01
3.085720e-01
3.325430e-01
2.487010e-01
2.607840e-01
2.764600e-01
2.957270e-01
3.185860e-01
2.380410e-01
2.488050e-01
2.631320e-01
2.810200e-01
3.024700e-01
3.539830e-01
3.786140e-01
4.070760e-01
4.393680e-01
4.754910e-01
3.443420e-01
3.673920e-01
3.947200e-01
4.263270e-01
4.622130e-01
3.325430e-01
3.534810e-01
3.792070e-01
4.097220e-01
4.450250e-01
3.185860e-01
3.368820e-01
3.605370e-01
3.895510e-01
4.239250e-01
3.024700e-01
3.175940e-01
3.387100e-01
3.658160e-01
3.989130e-01
4.754910e-01
5.199420e-01
5.652440e-01
6.113950e-01
6.583960e-01
4.622130e-01
5.060940e-01
5.509990e-01
5.969310e-01
6.438870e-01
4.450250e-01
4.873740e-01
5.307240e-01
5.750740e-01
6.204250e-01
4.239250e-01
4.637840e-01
5.044180e-01
5.458270e-01
5.880100e-01
3.989130e-01
4.353240e-01
4.720820e-01
5.091870e-01
5.466410e-01
6.583960e-01
7.280860e-01
7.926440e-01
8.520710e-01
9.063670e-01
6.438870e-01
7.179110e-01
7.859640e-01
8.480480e-01
9.041630e-01
6.204250e-01
6.974540e-01
7.673460e-01
8.300980e-01
8.857130e-01
5.880100e-01
6.667170e-01
7.367880e-01
7.982210e-01
8.510180e-01
5.466410e-01
6.256990e-01
6.942910e-01
7.524170e-01
8.000770e-01
9.063670e-01
9.624690e-01
1.009330e+00
1.046950e+00
1.075330e+00
9.041630e-01
9.662210e-01
1.018360e+00
1.060590e+00
1.092900e+00
8.857130e-01
9.520220e-01
1.008250e+00
1.054390e+00
1.090450e+00
8.510180e-01
9.198700e-01
9.789830e-01
1.028360e+00
1.067990e+00
8.000770e-01
8.697660e-01
9.305710e-01
9.824920e-01
1.025530e+00
1.075330e+00
1.068170e+00
1.051870e+00
1.026440e+00
9.918670e-01
1.092900e+00
1.086530e+00
1.072500e+00
1.050800e+00
1.021440e+00
1.090450e+00
1.084950e+00
1.073490e+00
1.056070e+00
1.032680e+00
1.067990e+00
1.063450e+00
1.054870e+00
1.042240e+00
1.025580e+00
1.025530e+00
1.022020e+00
1.016620e+00
1.009330e+00
1.000160e+00
9.918670e-01
9.160930e-01
8.210160e-01
7.066370e-01
5.729540e-01
1.021440e+00
9.582370e-01
8.757430e-01
7.739540e-01
6.528700e-01
1.032680e+00
9.793690e-01
9.083020e-01
8.194740e-01
7.128840e-01
1.025580e+00
9.794900e-01
9.186940e-01
8.431960e-01
7.529970e-01
1.000160e+00
9.585980e-01
9.069190e-01
8.451220e-01
7.732080e-01
5.729540e-01
4.732400e-01
3.875810e-01
3.159740e-01
2.584220e-01
6.528700e-01
5.494330e-01
4.581970e-01
3.791610e-01
3.123260e-01
7.128840e-01
6.109000e-01
5.181900e-01
4.347530e-01
3.605910e-01
7.529970e-01
6.576410e-01
5.675590e-01
4.827500e-01
4.032150e-01
7.732080e-01
6.896560e-01
6.063040e-01
5.231520e-01
4.402000e-01
2.584220e-01
2.096950e-01
1.773040e-01
1.612490e-01
1.615300e-01
3.123260e-01
2.584910e-01
2.200900e-01
1.971220e-01
1.895890e-01
3.605910e-01
3.032840e-01
2.601340e-01
2.311410e-01
2.163040e-01
4.032150e-01
3.440740e-01
2.974370e-01
2.633040e-01
2.416740e-01
4.402000e-01
3.808620e-01
3.319990e-01
2.936120e-01
2.656990e-01
1.615300e-01
1.635340e-01
1.635830e-01
1.616750e-01
1.578110e-01
1.895890e-01
1.868020e-01
1.829240e-01
1.779570e-01
1.718990e-01
2.163040e-01
2.083460e-01
2.002580e-01
1.920410e-01
1.836930e-01
2.416740e-01
2.281670e-01
2.155840e-01
2.039260e-01
1.931930e-01
2.656990e-01
2.462640e-01
2.289020e-01
2.136130e-01
2.003980e-01
1.578110e-01
1.530770e-01
1.479120e-01
1.423150e-01
1.362860e-01
1.718990e-01
1.652510e-01
1.584490e-01
1.514940e-01
1.443870e-01
1.836930e-01
1.752720e-01
1.669740e-01
1.587980e-01
1.507450e-01
1.931930e-01
1.831420e-01
1.734870e-01
1.642260e-01
1.553610e-01
2.003980e-01
1.888610e-01
1.779870e-01
1.677780e-01
1.582340e-01
1.362860e-01
1.312420e-01
1.262040e-01
1.211720e-01
1.161450e-01
1.443870e-01
1.385830e-01
1.330030e-01
1.276460e-01
1.225120e-01
1.507450e-01
1.442730e-01
1.382300e-01
1.326170e-01
1.274330e-01
1.553610e-01
1.483120e-01
1.418860e-01
1.360850e-01
1.309070e-01
1.582340e-01
1.506990e-01
1.439710e-01
1.380490e-01
1.329340e-01
8.939170e-02
9.296680e-02
9.623190e-02
9.918720e-02
1.018330e-01
8.740010e-02
9.071900e-02
9.372070e-02
9.640500e-02
9.877200e-02
8.530680e-02
8.836750e-02
9.111630e-02
9.355320e-02
9.567830e-02
8.311190e-02
8.591220e-02
8.841890e-02
9.063190e-02
9.255120e-02
8.081530e-02
8.335320e-02
8.562840e-02
8.764100e-02
8.939090e-02
1.018330e-01
1.043100e-01
1.065820e-01
1.086500e-01
1.105130e-01
9.877200e-02
1.009360e-01