<?xml version="1.0"?>
<VTKFile type="UnstructuredGrid" version="0.1" byte_order="LittleEndian" compressor="vtkZLibDataCompressor">
<UnstructuredGrid>
<Piece NumberOfPoints="10000" NumberOfCells="6400">
<Points>
<DataArray type="Float32" NumberOfComponents="3" format="ascii">
-3.360000e+00 0.000000e+00 0.000000e+00
-3.276000e+00 0.000000e+00 0.000000e+00
-3.192000e+00 0.000000e+00 0.000000e+00
-3.108000e+00 0.000000e+00 0.000000e+00
-3.024000e+00 0.000000e+00 0.000000e+00
-3.360000e+00 6.412500e-02 0.000000e+00
-3.276000e+00 6.412500e-02 0.000000e+00
-3.192000e+00 6.412500e-02 0.000000e+00
-3.108000e+00 6.412500e-02 0.000000e+00
-3.024000e+00 6.412500e-02 0.000000e+00
-3.360000e+00 1.282500e-01 0.000000e+00
-3.276000e+00 1.282500e-01 0.000000e+00
-3.192000e+00 1.282500e-01 0.000000e+00
-3.108000e+00 1.282500e-01 0.000000e+00
-3.024000e+00 1.282500e-01 0.000000e+00
-3.360000e+00 1.923750e-01 0.000000e+00
-3.276000e+00 1.923750e-01 0.000000e+00
-3.192000e+00 1.923750e-01 0.000000e+00
-3.108000e+00 1.923750e-01 0.000000e+00
-3.024000e+00 1.923750e-01 0.000000e+00
-3.360000e+00 2.565000e-01 0.000000e+00
-3.276000e+00 2.565000e-01 0.000000e+00
-3.192000e+00 2.565000e-01 0.000000e+00
-3.108000e+00 2.565000e-01 0.000000e+00
-3.024000e+00 2.565000e-01 0.000000e+00
-3.024000e+00 0.000000e+00 0.000000e+00
-2.940000e+00 0.000000e+00 0.000000e+00
-2.856000e+00 0.000000e+00 0.000000e+00
-2.772000e+00 0.000000e+00 0.000000e+00
-2.688000e+00 0.000000e+00 0.000000e+00
-3.024000e+00 6.412500e-02 0.000000e+00
-2.940000e+00 6.412500e-02 0.000000e+00
-2.856000e+00 6.412500e-02 0.000000e+00
-2.772000e+00 6.412500e-02 0.000000e+00
-2.688000e+00 6.412500e-02 0.000000e+00
-3.024000e+00 1.282500e-01 0.000000e+00
-2.940000e+00 1.282500e-01 0.000000e+00
-2.856000e+00 1.282500e-01 0.000000e+00
-2.772000e+00 1.282500e-01 0.000000e+00
-2.688000e+00 1.282500e-01 0.000000e+00
-3.024000e+00 1.923750e-01 0.000000e+00
-2.940000e+00 1.923750e-01 0.000000e+00
-2.856000e+00 1.923750e-01 0.000000e+00
-2.772000e+00 1.923750e-01 0.000000e+00
-2.688000e+00 1.923750e-01 0.000000e+00
-3.024000e+00 2.565000e-01 0.000000e+00
-2.940000e+00 2.565000e-01 0.000000e+00
-2.856000e+00 2.565000e-01 0.000000e+00
-2.772000e+00 2.565000e-01 0.000000e+00
-2.688000e+00 2.565000e-01 0.000000e+00
-2.688000e+00 0.000000e+00 0.000000e+00
-2.604000e+00 0.000000e+00 0.000000e+00
-2.520000e+00 0.000000e+00 0.000000e+00
-2.436000e+00 0.000000e+00 0.000000e+00
-2.352000e+00 0.000000e+00 0.000000e+00
-2.688000e+00 6.412500e-02 0.000000e+00
-2.604000e+00 6.412500e-02 0.000000e+00
-2.520000e+00 6.412500e-02 0.000000e+00
-2.436000e+00 6.412500e-02 0.000000e+00
-2.352000e+00 6.412500e-02 0.000000e+00
-2.688000e+00 1.282500e-01 0.000000e+00
-2.604000e+00 1.282500e-01 0.000000e+00
-2.520000e+00 1.282500e-01 0.000000e+00
-2.436000e+00 1.282500e-01 0.000000e+00
-2.352000e+00 1.282500e-01 0.000000e+00
-2.688000e+00 1.923750e-01 0.000000e+00
-2.604000e+00 1.923750e-01 0.000000e+00
-2.520000e+00 1.923750e-01 0.000000e+00
-2.436000e+00 1.923750e-01 0.000000e+00
-2.352000e+00 1.923750e-01 0.000000e+00
-2.688000e+00 2.565000e-01 0.000000e+00
-2.604000e+00 2.565000e-01 0.000000e+00
-2.520000e+00 2.565000e-01 0.000000e+00
-2.436000e+00 2.565000e-01 0.000000e+00
-2.352000e+00 2.565000e-01 0.000000e+00
-2.352000e+00 0.000000e+00 0.000000e+00
-2.268000e+00 0.000000e+00 0.000000e+00
-2.184000e+00 0.000000e+00 0.000000e+00
-2.100000e+00 0.000000e+00 0.000000e+00
-2.016000e+00 0.000000e+00 0.000000e+00
-2.352000e+00 6.412500e-02 0.000000e+00
-2.268000e+00 6.412500e-02 0.000000e+00
-2.184000e+00 6.412500e-02 0.000000e+00
-2.100000e+00 6.412500e-02 0.000000e+00
-2.016000e+00 6.412500e-02 0.000000e+00
-2.352000e+00 1.282500e-01 0.000000e+00
-2.268000e+00 1.282500e-01 0.000000e+00
-2.184000e+00 1.282500e-01 0.000000e+00
-2.100000e+00 1.282500e-01 0.000000e+00
-2.016000e+00 1.282500e-01 0.000000e+00
-2.352000e+00 1.923750e-01 0.000000e+00
-2.268000e+00 1.923750e-01 0.000000e+00
-2.184000e+00 1.923750e-01 0.000000e+00
-2.100000e+00 1.923750e-01 0.000000e+00
-2.016000e+00 1.923750e-01 0.000000e+00
-2.352000e+00 2.565000e-01 0.000000e+00
-2.268000e+00 2.565000e-01 0.000000e+00
-2.184000e+00 2.565000e-01 0.000000e+00
-2.100000e+00 2.565000e-01 0.000000e+00
-2.016000e+00 2.565000e-01 0.000000e+00
-2.016000e+00 0.000000e+00 0.000000e+00
-1.932000e+00 0.000000e+00 0.000000e+00
-1.848000e+00 0.000000e+00 0.000000e+00
-1.764000e+00 0.000000e+00 0.000000e+00
-1.680000e+00 0.000000e+00 0.000000e+00
-2.016000e+00 6.412500e-02 0.000000e+00
-1.932000e+00 6.412500e-02 0.000000e+00
-1.848000e+00 6.412500e-02 0.000000e+00
-1.764000e+00 6.412500e-02 0.000000e+00
-1.680000e+00 6.412500e-02 0.000000e+00
-2.016000e+00 1.282500e-01 0.000000e+00
-1.932000e+00 1.282500e-01 0.000000e+00
-1.848000e+00 1.282500e-01 0.000000e+00
-1.764000e+00 1.282500e-01 0.000000e+00
-1.680000e+00 1.282500e-01 0.000000e+00
-2.016000e+00 1.923750e-01 0.000000e+00
-1.932000e+00 1.923750e-01 0.000000e+00
-1.848000e+00 1.923750e-01 0.000000e+00
-1.764000e+00 1.923750e-01 0.000000e+00
-1.680000e+00 1.923750e-01 0.000000e+00
-2.016000e+00 2.565000e-01 0.000000e+00
-1.932000e+00 2.565000e-01 0.000000e+00
-1.848000e+00 2.565000e-01 0.000000e+00
-1.764000e+00 2.565000e-01 0.000000e+00
-1.680000e+00 2.565000e-01 0.000000e+00
-1.680000e+00 0.000000e+00 0.000000e+00
-1.596000e+00 0.000000e+00 0.000000e+00
-1.512000e+00 0.000000e+00 0.000000e+00
-1.428000e+00 0.000000e+00 0.000000e+00
-1.344000e+00 0.000000e+00 0.000000e+00
-1.680000e+00 6.412500e-02 0.000000e+00
-1.596000e+00 6.412500e-02 0.000000e+00
-1.512000e+00 6.412500e-02 0.000000e+00
-1.428000e+00 6.412500e-02 0.000000e+00
-1.344000e+00 6.412500e-02 0.000000e+00
-1.680000e+00 1.282500e-01 0.000000e+00
-1.596000e+00 1.282500e-01 0.000000e+00
-1.512000e+00 1.282500e-01 0.000000e+00
-1.428000e+00 1.282500e-01 0.000000e+00
-1.344000e+00 1.282500e-01 0.000000e+00
-1.680000e+00 1.923750e-01 0.000000e+00
-1.596000e+00 1.923750e-01 0.000000e+00
-1.512000e+00 1.923750e-01 0.000000e+00
-1.428000e+00 1.923750e-01 0.000000e+00
-1.344000e+00 1.923750e-01 0.000000e+00
-1.680000e+00 2.565000e-01 0.000000e+00
-1.596000e+00 2.565000e-01 0.000000e+00
-1.512000e+00 2.565000e-01 0.000000e+00
-1.428000e+00 2.565000e-01 0.000000e+00
-1.344000e+00 2.565000e-01 0.000000e+00
-1.344000e+00 0.000000e+00 0.000000e+00
-1.260000e+00 0.000000e+00 0.000000e+00
-1.176000e+00 0.000000e+00 0.000000e+00
-1.092000e+00 0.000000e+00 0.000000e+00
-1.008000e+00 0.000000e+00 0.000000e+00
-1.344000e+00 6.412500e-02 0.000000e+00
-1.260000e+00 6.412500e-02 0.000000e+00
-1.176000e+00 6.412500e-02 0.000000e+00
-1.092000e+00 6.412500e-02 0.000000e+00
-1.008000e+00 6.412500e-02 0.000000e+00
-1.344000e+00 1.282500e-01 0.000000e+00
-1.260000e+00 1.282500e-01 0.000000e+00
-1.176000e+00 1.282500e-01 0.000000e+00
-1.092000e+00 1.282500e-01 0.000000e+00
-1.008000e+00 1.282500e-01 0.000000e+00
-1.344000e+00 1.923750e-01 0.000000e+00
-1.260000e+00 1.923750e-01 0.000000e+00
-1.176000e+00 1.923750e-01 0.000000e+00
-1.092000e+00 1.923750e-01 0.000000e+00
-1.008000e+00 1.923750e-01 0.000000e+00
-1.344000e+00 2.565000e-01 0.000000e+00
-1.260000e+00 2.565000e-01 0.000000e+00
-1.176000e+00 2.565000e-01 0.000000e+00
-1.092000e+00 2.565000e-01 0.000000e+00
-1.008000e+00 2.565000e-01 0.000000e+00
-1.008000e+00 0.000000e+00 0.000000e+00
-9.240000e-01 0.000000e+00 0.000000e+00
-8.400000e-01 0.000000e+00 0.000000e+00
-7.560000e-01 0.000000e+00 0.000000e+00
-6.720000e-01 0.000000e+00 0.000000e+00
-1.008000e+00 6.412500e-02 0.000000e+00
-9.240000e-01 6.412500e-02 0.000000e+00
-8.400000e-01 6.412500e-02 0.000000e+00
-7.560000e-01 6.412500e-02 0.000000e+00
-6.720000e-01 6.412500e-02 0.000000e+00
-1.008000e+00 1.282500e-01 0.000000e+00
-9.240000e-01 1.282500e-01 0.000000e+00
-8.400000e-01 1.282500e-01 0.000000e+00
-7.560000e-01 1.282500e-01 0.000000e+00
-6.720000e-01 1.282500e-01 0.000000e+00
-1.008000e+00 1.923750e-01 0.000000e+00
-9.240000e-01 1.923750e-01 0.000000e+00
-8.400000e-01 1.923750e-01 0.000000e+00
-7.560000e-01 1.923750e-01 0.000000e+00
-6.720000e-01 1.923750e-01 0.000000e+00
-1.008000e+00 2.565000e-01 0.000000e+00
-9.240000e-01 2.565000e-01 0.000000e+00
-8.400000e-01 2.565000e-01 0.000000e+00
-7.560000e-01 2.565000e-01 0.000000e+00
-6.720000e-01 2.565000e-01 0.000000e+00
-6.720000e-01 0.000000e+00 0.000000e+00
-5.880000e-01 0.000000e+00 0.000000e+00
-5.040000e-01 0.000000e+00 0.000000e+00
-4.200000e-01 0.000000e+00 0.000000e+00
-3.360000e-01 0.000000e+00 0.000000e+00
-6.720000e-01 6.412500e-02 0.000000e+00
-5.880000e-01 6.412500e-02 0.000000e+00
-5.040000e-01 6.412500e-02 0.000000e+00
-4.200000e-01 6.412500e-02 0.000000e+00
-3.360000e-01 6.412500e-02 0.000000e+00
-6.720000e-01 1.282500e-01 0.000000e+00
-5.880000e-01 1.282500e-01 0.000000e+00
-5.040000e-01 1.282500e-01 0.000000e+00
-4.200000e-01 1.282500e-01 0.000000e+00
-3.360000e-01 1.282500e-01 0.000000e+00
-6.720000e-01 1.923750e-01 0.000000e+00
-5.880000e-01 1.923750e-01 0.000000e+00
-5.040000e-01 1.923750e-01 0.000000e+00
-4.200000e-01 1.923750e-01 0.000000e+00
-3.360000e-01 1.923750e-01 0.000000e+00
-6.720000e-01 2.565000e-01 0.000000e+00
-5.880000e-01 2.565000e-01 0.000000e+00
-5.040000e-01 2.565000e-01 0.000000e+00
-4.200000e-01 2.565000e-01 0.000000e+00
-3.360000e-01 2.565000e-01 0.000000e+00
-3.360000e-01 0.000000e+00 0.000000e+00
-2.520000e-01 0.000000e+00 0.000000e+00
-1.680000e-01 0.000000e+00 0.000000e+00
-8.400000e-02 0.000000e+00 0.000000e+00
-4.440890e-16 0.000000e+00 0.000000e+00
-3.360000e-01 6.412500e-02 0.000000e+00
-2.520000e-01 6.412500e-02 0.000000e+00
-1.680000e-01 6.412500e-02 0.000000e+00
-8.400000e-02 6.412500e-02 0.000000e+00
-4.440890e-16 6.412500e-02 0.000000e+00
-3.360000e-01 1.282500e-01 0.000000e+00
-2.520000e-01 1.282500e-01 0.000000e+00
-1.680000e-01 1.282500e-01 0.000000e+00
-8.400000e-02 1.282500e-01 0.000000e+00
-4.440890e-16 1.282500e-01 0.000000e+00
-3.360000e-01 1.923750e-01 0.000000e+00
-2.520000e-01 1.923750e-01 0.000000e+00
-1.680000e-01 1.923750e-01 0.000000e+00
[...]
<PointData>
<DataArray type="Float32" Name="V1" format="ascii">
0.000000e+00
0.000000e+00
0.000000e+00
0.000000e+00
0.000000e+00
6.347820e-02
6.350380e-02
6.460910e-02
6.679390e-02
7.005840e-02
1.013490e-01
1.030530e-01
1.058610e-01
1.097720e-01
1.147870e-01
1.136110e-01
1.186480e-01
1.237570e-01
1.289360e-01
1.341850e-01
1.002660e-01
1.102890e-01
1.182950e-01
1.242830e-01
1.282540e-01
0.000000e+00
0.000000e+00
0.000000e+00
0.000000e+00
0.000000e+00
7.005840e-02
7.189390e-02
7.470480e-02
7.849110e-02
8.325270e-02
1.147870e-01
1.185200e-01
1.235270e-01
1.298100e-01
1.373670e-01
1.341850e-01
1.398770e-01
1.464670e-01
1.539560e-01
1.623440e-01
1.282540e-01
1.359660e-01
1.435250e-01
1.509310e-01
1.581830e-01
0.000000e+00
0.000000e+00
0.000000e+00
0.000000e+00
0.000000e+00
8.325270e-02
8.746390e-02
9.227650e-02
9.769030e-02
1.037050e-01
1.373670e-01
1.443920e-01
1.523780e-01
1.613230e-01
1.712290e-01
1.623440e-01
1.707850e-01
1.803030e-01
1.908980e-01
2.025690e-01
1.581830e-01
1.666430e-01
1.760540e-01
1.864150e-01
1.977270e-01
0.000000e+00
0.000000e+00
0.000000e+00
0.000000e+00
0.000000e+00
1.037050e-01
1.098210e-01
1.168220e-01
1.247090e-01
1.334830e-01
1.712290e-01
1.813350e-01
1.928780e-01
2.058600e-01
2.202780e-01
2.025690e-01
2.145430e-01
2.281700e-01
2.434510e-01
2.603860e-01
1.977270e-01
2.094440e-01
2.226970e-01
2.374840e-01
2.538070e-01
0.000000e+00
0.000000e+00
0.000000e+00
0.000000e+00
0.000000e+00
1.334830e-01
1.422380e-01
1.525200e-01
1.643310e-01
1.776710e-01
2.202780e-01
2.347040e-01
2.516030e-01
2.709750e-01
2.928200e-01
2.603860e-01
2.773990e-01
2.972470e-01
3.199300e-01
3.454490e-01
2.538070e-01
2.703230e-01
2.894530e-01
3.111970e-01
3.355560e-01
0.000000e+00
0.000000e+00
0.000000e+00
0.000000e+00
0.000000e+00
1.776710e-01
1.903410e-01
2.057360e-01
2.238560e-01
2.447010e-01
2.928200e-01
3.137010e-01
3.389480e-01
3.685610e-01
4.025400e-01
3.454490e-01
3.700780e-01
3.996330e-01
4.341130e-01
4.735180e-01
3.355560e-01
3.594740e-01
3.877940e-01
4.205140e-01
4.576360e-01
0.000000e+00
0.000000e+00
0.000000e+00
0.000000e+00
0.000000e+00
2.447010e-01
2.638230e-01
2.871020e-01
3.145380e-01
3.461300e-01
4.025400e-01
4.340900e-01
4.722360e-01
5.169770e-01
5.683150e-01
4.735180e-01
5.108000e-01
5.554000e-01
6.073190e-01
6.665560e-01
4.576360e-01
4.939540e-01
5.365960e-01
5.855630e-01
6.408540e-01
0.000000e+00
0.000000e+00
0.000000e+00
0.000000e+00
0.000000e+00
3.461300e-01
3.767740e-01
4.108350e-01
4.483150e-01
4.892120e-01
5.683150e-01
6.189640e-01
6.749730e-01
7.363430e-01
8.030730e-01
6.665560e-01
7.265700e-01
7.924120e-01
8.640830e-01
9.415820e-01
6.408540e-01
6.995930e-01
7.631540e-01
8.315360e-01
9.047400e-01
0.000000e+00
0.000000e+00
0.000000e+00
0.000000e+00
0.000000e+00
4.892120e-01
5.356740e-01
5.783020e-01
6.170960e-01
6.520550e-01
8.030730e-01
8.802080e-01
9.512240e-01
1.016120e+00
1.074900e+00
9.415820e-01
1.033600e+00
1.118770e+00
1.197070e+00
1.268530e+00
9.047400e-01
9.958560e-01
1.080930e+00
1.159960e+00
1.232940e+00
0.000000e+00
0.000000e+00
0.000000e+00
0.000000e+00
0.000000e+00
6.520550e-01
6.963420e-01
7.270360e-01
7.441380e-01
7.476480e-01
1.074900e+00
1.148940e+00
1.201150e+00
1.231520e+00
1.240070e+00
1.268530e+00
1.357790e+00
1.422330e+00
1.462150e+00
1.477260e+00
1.232940e+00
1.322890e+00
1.390580e+00
1.436030e+00
1.459220e+00
0.000000e+00
0.000000e+00
0.000000e+00
0.000000e+00
0.000000e+00
7.476480e-01
7.458150e-01
7.336460e-01
7.111420e-01
6.783020e-01
1.240070e+00
1.235860e+00
1.214980e+00
1.177420e+00
1.123190e+00
1.477260e+00
1.470150e+00
1.444010e+00
1.398840e+00
1.334650e+00
1.459220e+00
1.448660e+00
1.420720e+00
1.375400e+00
1.312700e+00
0.000000e+00
0.000000e+00
0.000000e+00
0.000000e+00
0.000000e+00
6.783020e-01
6.336910e-01
5.903660e-01
5.483260e-01
5.075730e-01
1.123190e+00
1.047880e+00
9.749180e-01
9.042860e-01
8.359890e-01
1.334650e+00
1.242580e+00
1.153660e+00
1.067880e+00
9.852500e-01
1.312700e+00
1.217780e+00
1.126580e+00
1.039110e+00
9.553560e-01
0.000000e+00
0.000000e+00
0.000000e+00
0.000000e+00
0.000000e+00
5.075730e-01
4.629150e-01
4.226470e-01
3.867690e-01
3.552810e-01
8.359890e-01
7.627890e-01
6.964940e-01
6.371020e-01
5.846150e-01
9.852500e-01
8.996240e-01
8.215410e-01
7.510000e-01
6.880030e-01
9.553560e-01
8.734180e-01
7.977870e-01
7.284630e-01
6.654440e-01
0.000000e+00
0.000000e+00
0.000000e+00
0.000000e+00
0.000000e+00
3.552810e-01
3.242440e-01
2.963670e-01
2.716500e-01
2.500910e-01
5.846150e-01
5.340530e-01
4.884430e-01
4.477830e-01
4.120750e-01
6.880030e-01
6.294270e-01
5.762270e-01
5.284010e-01
4.859500e-01
6.654440e-01
6.103660e-01
5.597180e-01
5.135020e-01
4.717170e-01
0.000000e+00
0.000000e+00
0.000000e+00
0.000000e+00
0.000000e+00
2.500910e-01
2.298340e-01
2.115400e-01
1.952090e-01
1.808430e-01
4.120750e-01
3.789540e-01
3.489770e-01
3.221460e-01
2.984600e-01
4.859500e-01
4.473600e-01
4.123130e-01
3.808090e-01
3.528490e-01
4.717170e-01
4.350520e-01
4.015470e-01
3.712000e-01
3.440110e-01
0.000000e+00
0.000000e+00
0.000000e+00
0.000000e+00
0.000000e+00
1.808430e-01
1.675730e-01
1.554760e-01
1.445510e-01
1.347990e-01
2.984600e-01
2.766820e-01
2.568140e-01
2.388560e-01
2.228080e-01
3.528490e-01
3.273250e-01
3.040130e-01
2.829140e-01
2.640270e-01
3.440110e-01
3.195030e-01
2.970750e-01
2.767260e-01
2.584560e-01
0.000000e+00
0.000000e+00
0.000000e+00
0.000000e+00
0.000000e+00
1.347990e-01
1.259000e-01
1.176760e-01
1.101270e-01
1.032530e-01
2.228080e-01
2.081580e-01
1.946260e-01
1.822140e-01
1.709210e-01
2.640270e-01
2.467720e-01
2.308500e-01
2.162610e-01
2.030050e-01
2.584560e-01
2.417440e-01
2.263470e-01
2.122680e-01
1.995050e-01
0.000000e+00
0.000000e+00
0.000000e+00
0.000000e+00
0.000000e+00
1.032530e-01
9.710470e-02
9.130270e-02
8.584660e-02
8.073650e-02
1.709210e-01
1.607690e-01
1.512160e-01
1.422620e-01
1.339070e-01
2.030050e-01
1.909940e-01
1.797410e-01
1.692470e-01
1.595110e-01
1.995050e-01
1.877780e-01
1.768760e-01
1.668000e-01
1.575500e-01
0.000000e+00
0.000000e+00
0.000000e+00
0.000000e+00
0.000000e+00
8.073650e-02
7.649700e-02
7.222060e-02
6.790710e-02
6.355670e-02
1.339070e-01
1.268140e-01
1.197810e-01
1.128090e-01
1.058960e-01
1.595110e-01
1.509520e-01
1.426830e-01
1.347050e-01
1.270180e-01
1.575500e-01
1.489090e-01
1.409240e-01
1.335960e-01
1.269230e-01
0.000000e+00
0.000000e+00
0.000000e+00
0.000000e+00
0.000000e+00
6.355670e-02
6.062790e-02
5.717240e-02
5.319030e-02
4.868150e-02
1.058960e-01
1.008100e-01
9.520740e-02
8.908860e-02
8.245330e-02
1.270180e-01
1.205460e-01
1.141050e-01
1.076950e-01
1.013160e-01
1.269230e-01
1.198370e-01
1.138660e-01
1.090090e-01
1.052680e-01
1.002660e-01
1.102890e-01
1.182950e-01
1.242830e-01
1.282540e-01
9.945850e-02
1.053160e-01
1.108740e-01
1.161350e-01
1.210970e-01
9.848610e-02
1.021360e-01
1.063760e-01
1.112050e-01
1.166240e-01
9.734850e-02
1.007510e-01
1.048000e-01
1.094940e-01
1.148340e-01
9.604590e-02
1.011610e-01
1.061460e-01
1.110010e-01
1.157270e-01
1.282540e-01
1.359660e-01
1.435250e-01
1.509310e-01
1.581830e-01
1.210970e-01
1.274180e-01
1.339910e-01
1.408170e-01
1.478950e-01
1.166240e-01
1.221310e-01
1.281140e-01
1.345730e-01
1.415070e-01
1.148340e-01
1.201050e-01
1.258940e-01
1.321980e-01
1.390190e-01
1.157270e-01
1.213410e-01
1.273290e-01
1.336930e-01
1.404310e-01
1.581830e-01
1.666430e-01
1.760540e-01
1.864150e-01
1.977270e-01
1.478950e-01
1.556060e-01
1.642390e-01
1.737950e-01
1.842730e-01
1.415070e-01
1.487470e-01
1.568710e-01
1.658800e-01
1.757730e-01
1.390190e-01
1.460670e-01
1.539510e-01
1.626710e-01
1.722280e-01
1.404310e-01
1.475660e-01
1.554790e-01
1.641690e-01
1.736370e-01
1.977270e-01
2.094440e-01
2.226970e-01
2.374840e-01
2.538070e-01
1.842730e-01
1.950010e-01
2.071860e-01
2.208280e-01
2.359270e-01
1.757730e-01
1.858200e-01
1.972580e-01
2.100890e-01
2.243110e-01
1.722280e-01
1.819000e-01
1.929130e-01
2.052660e-01
2.189590e-01
1.736370e-01
1.832420e-01
1.941490e-01
2.063600e-01
2.198720e-01
2.538070e-01
2.703230e-01
2.894530e-01
3.111970e-01
3.355560e-01
2.359270e-01
2.510300e-01
2.686170e-01
2.886890e-01
3.112450e-01
2.243110e-01
2.384050e-01
2.548710e-01
2.737080e-01
2.949180e-01
2.189590e-01
2.324490e-01
2.482140e-01
2.662560e-01
2.865750e-01
2.198720e-01
2.331600e-01
2.486470e-01
2.663320e-01
2.862160e-01
3.355560e-01
3.594740e-01
3.877940e-01
4.205140e-01
4.576360e-01
3.112450e-01
3.330350e-01
3.591140e-01
3.894810e-01
4.241370e-01
2.949180e-01
3.151420e-01
3.395390e-01
3.681090e-01
4.008500e-01
2.865750e-01
3.057970e-01
3.290710e-01
3.563970e-01
3.877760e-01
2.862160e-01
3.049970e-01
3.277070e-01
3.543460e-01
3.849130e-01
4.576360e-01
4.939540e-01
5.365960e-01
5.855630e-01
6.408540e-01
4.241370e-01
4.571930e-01
4.968520e-01
5.431130e-01
5.959760e-01
4.008500e-01
4.314160e-01
4.687970e-01
5.129930e-01
5.640040e-01
3.877760e-01
4.166220e-01
4.524310e-01
4.952030e-01
5.449370e-01
3.849130e-01
4.128120e-01
4.477550e-01
4.897420e-01
5.387740e-01
6.408540e-01
6.995930e-01
7.631540e-01
8.315360e-01
9.047400e-01
5.959760e-01
6.510810e-01
7.121550e-01
7.791960e-01
8.522050e-01
5.640040e-01
6.163330e-01
6.757410e-01
7.422290e-01
8.157980e-01
5.449370e-01
5.953470e-01
6.539130e-01
7.206370e-01
7.955160e-01
5.387740e-01
5.881230e-01
6.466710e-01
7.144170e-01
7.913620e-01
9.047400e-01
9.958560e-01
1.080930e+00
1.159960e+00
1.232940e+00
8.522050e-01
9.450560e-01
1.032890e+00
1.115710e+00
1.193520e+00
8.157980e-01
9.117670e-01
1.004050e+00
1.092650e+00
1.177550e+00
7.955160e-01
8.959880e-01
9.944010e-01
1.090760e+00
1.185050e+00
7.913620e-01
8.977200e-01
1.003950e+00
1.110040e+00
1.216010e+00
1.232940e+00
1.322890e+00
1.390580e+00
1.436030e+00
1.459220e+00
1.193520e+00
1.294630e+00
1.370660e+00
1.421610e+00
1.447470e+00
1.177550e+00
1.294340e+00
1.382660e+00
1.442520e+00
1.473910e+00
1.185050e+00
1.322000e+00
1.426560e+00
1.498740e+00
1.538540e+00
1.216010e+00
1.377620e+00
1.502380e+00
1.590290e+00
1.641350e+00
1.459220e+00
1.448660e+00
1.420720e+00
1.375400e+00
1.312700e+00
1.447470e+00
1.432470e+00
1.398650e+00
1.346000e+00
1.274540e+00
1.473910e+00
1.453990e+00
1.413060e+00
1.351110e+00
1.268130e+00
1.538540e+00
1.513240e+00
1.463960e+00
1.390710e+00
1.293480e+00
1.641350e+00
1.610190e+00
1.551350e+00
1.464810e+00
1.350580e+00
1.312700e+00
1.217780e+00
1.126580e+00
1.039110e+00
9.553560e-01
1.274540e+00
1.168910e+00
1.070510e+00
9.793170e-01
8.953420e-01
1.268130e+00
1.147240e+00
1.037920e+00
9.401710e-01
8.539920e-01
1.293480e+00
1.152760e+00
1.028820e+00
9.216700e-01
8.313040e-01
1.350580e+00
1.185460e+00
1.043210e+00
9.238120e-01
8.272800e-01
9.553560e-01
8.734180e-01
7.977870e-01
7.284630e-01
6.654440e-01
8.953420e-01
8.155710e-01
7.423800e-01
6.757710e-01
6.157440e-01
8.539920e-01
7.753300e-01
7.034710e-01
6.384140e-01
5.801590e-01
8.313040e-01
7.526970e-01
6.810590e-01
6.163900e-01
5.586900e-01
8.272800e-01
7.476710e-01
6.751440e-01
6.097000e-01
5.513380e-01
6.654440e-01
6.103660e-01
5.597180e-01
5.135020e-01
4.717170e-01
6.157440e-01
5.644510e-01
5.173570e-01
4.744620e-01
4.357660e-01
5.801590e-01
5.319630e-01
4.876590e-01
4.472460e-01
4.107250e-01
5.586900e-01
5.129020e-01
4.706240e-01
4.318540e-01
3.965930e-01
5.513380e-01
5.072690e-01
4.662520e-01
4.282860e-01
3.933700e-01
4.717170e-01
4.350520e-01
4.015470e-01
3.712000e-01
3.440110e-01
4.357660e-01
4.019380e-01
3.710770e-01
3.431810e-01
3.182520e-01
4.107250e-01
3.791230e-01
3.502900e-01
3.242270e-01
3.009330e-01
3.965930e-01
3.666060e-01
3.391860e-01
3.143350e-01
2.920520e-01
3.933700e-01
3.643870e-01
3.377660e-01
3.135070e-01
2.916110e-01
3.440110e-01
3.195030e-01
2.970750e-01
2.767260e-01
2.584560e-01
3.182520e-01
2.956950e-01
2.750650e-01
2.563620e-01
2.395870e-01
3.009330e-01
2.798410e-01
2.605460e-01
2.430460e-01
2.273420e-01
2.920520e-01
2.719430e-01
2.535180e-01
2.367780e-01
2.217220e-01
2.916110e-01
2.719990e-01
2.539810e-01
2.375570e-01
2.227270e-01
2.584560e-01
2.417440e-01
2.263470e-01
2.122680e-01
1.995050e-01
2.395870e-01
2.241820e-01
2.099880e-01
1.970050e-01
1.852330e-01
2.273420e-01
2.128780e-01
1.995450e-01
1.873440e-01
1.762740e-01
2.217220e-01
2.078320e-01
1.950200e-01
1.832850e-01
1.726290e-01
2.227270e-01
2.090440e-01
1.964120e-01
1.848290e-01
1.742970e-01
1.995050e-01
1.877780e-01
1.768760e-01
1.668000e-01
1.575500e-01
1.852330e-01
1.743960e-01
1.643100e-01
1.549730e-01
1.463860e-01
1.762740e-01
1.660520e-01
1.565320e-01
1.477150e-01
1.396010e-01
1.726290e-01
1.627440e-01
1.535420e-01
1.450250e-01
1.371920e-01
1.742970e-01
1.644720e-01
1.553420e-01
1.469050e-01
1.391610e-01
1.575500e-01
1.489090e-01
1.409240e-01
1.335960e-01
1.269230e-01
1.463860e-01
1.384240e-01
1.310060e-01
1.241320e-01
1.178020e-01
1.396010e-01
1.320870e-01
1.250570e-01
1.185110e-01
1.124490e-01
1.371920e-01
1.298970e-01
1.230770e-01
1.167330e-01
1.108640e-01
1.391610e-01
1.318550e-01
1.250670e-01
1.187970e-01
1.130470e-01
1.269230e-01
1.198370e-01
1.138660e-01
1.090090e-01
1.052680e-01
1.178020e-01
1.114400e-01
1.058400e-01
1.010040e-01
9.693170e-02
1.124490e-01
1.065950e-01
1.012610e-01
9.644660e-02
9.215230e-02
1.108640e-01
1.053030e-01
1.001270e-01
9.533610e-02
9.092990e-02
1.130470e-01
1.075640e-01
1.024390e-01
9.767280e-02
9.326440e-02
9.604590e-02
1.011610e-01
1.061460e-01
1.110010e-01
1.157270e-01
9.458900e-02
9.890740e-02
1.033750e-01
1.079910e-01
1.127560e-01
9.299440e-02
9.682720e-02
1.009510e-01
1.053660e-01
1.100720e-01
9.126190e-02
9.492020e-02
9.887520e-02
1.031270e-01
1.076760e-01
8.939170e-02
9.318630e-02
9.714700e-02
1.012740e-01
1.055660e-01
1.157270e-01
1.213410e-01
1.273290e-01
1.336930e-01
1.404310e-01
1.127560e-01
1.179860e-01
1.236360e-01
1.297060e-01
1.361970e-01
1.100720e-01
1.150010e-01
1.203640e-01
1.261610e-01
1.323920e-01
1.076760e-01
1.123880e-01
1.175150e-01
1.230590e-01
1.290180e-01
1.055660e-01
1.101450e-01
1.150890e-01
1.203980e-01
1.260730e-01
1.404310e-01
1.475660e-01
1.554790e-01
1.641690e-01
1.736370e-01
1.361970e-01
1.429530e-01
1.504490e-01
1.586840e-01
1.676580e-01
1.323920e-01
1.387980e-01
1.459000e-01
1.537000e-01
1.621970e-01
1.290180e-01
1.351000e-01
1.418330e-01
1.492180e-01
1.572530e-01
1.260730e-01
1.318600e-01
1.382480e-01
1.452370e-01
1.528270e-01
1.736370e-01
1.832420e-01
1.941490e-01
2.063600e-01
2.198720e-01
1.676580e-01
1.766960e-01
1.869530e-01
1.984290e-01
2.111250e-01
1.621970e-01
1.706910e-01
1.803190e-01
1.910810e-01
2.029760e-01
1.572530e-01
1.652270e-01
1.742470e-01
1.843130e-01
1.954250e-01
1.528270e-01
1.603050e-01
1.687380e-01
1.781270e-01
1.884720e-01
2.198720e-01
2.331600e-01
2.486470e-01
2.663320e-01
2.862160e-01
2.111250e-01
2.234930e-01
2.379250e-01
2.544200e-01
2.729780e-01
2.029760e-01
2.144480e-01
2.278380e-01
2.431490e-01
2.603780e-01
1.954250e-01
2.060230e-01
2.183880e-01
2.325190e-01
2.484180e-01
1.884720e-01
1.982190e-01
2.095720e-01
2.225310e-01
2.370960e-01
2.862160e-01
3.049970e-01
3.277070e-01
3.543460e-01
3.849130e-01
2.729780e-01
2.902020e-01
3.112030e-01
3.359810e-01
3.645360e-01
2.603780e-01
2.760590e-01
2.953260e-01
3.181780e-01
3.446170e-01
2.484180e-01
2.625680e-01
2.800740e-01
3.009370e-01
3.251560e-01
2.370960e-01
2.497290e-01
2.654490e-01
2.842580e-01
3.061540e-01
3.849130e-01
4.128120e-01
4.477550e-01
4.897420e-01
5.387740e-01
3.645360e-01
3.894680e-01
4.217780e-01
4.614680e-01
5.085370e-01
3.446170e-01
3.665230e-01
3.959810e-01
4.329900e-01
4.775500e-01
3.251560e-01
3.439770e-01
3.703610e-01
4.043070e-01
4.458150e-01
3.061540e-01
3.218310e-01
3.449190e-01
3.754190e-01
4.133310e-01
5.387740e-01
5.881230e-01
6.466710e-01
7.144170e-01
7.913620e-01
5.085370e-01
5.522760e-01
6.078700e-01
6.753200e-01
7.546240e-01
4.775500e-01
5.150500e-01
5.665320e-01
6.319950e-01
7.114410e-01
4.458150e-01
4.764450e-01
5.226550e-01
5.844450e-01
6.618140e-01
4.133310e-01
4.364620e-01
4.762410e-01
5.326680e-01
6.057430e-01
7.913620e-01
8.977200e-01
1.003950e+00
1.110040e+00
1.216010e+00
7.546240e-01
8.652490e-01
9.769720e-01
1.089790e+00
1.203710e+00
7.114410e-01
8.217800e-01
9.333090e-01
1.046030e+00
1.159930e+00
6.618140e-01
7.673150e-01
8.729570e-01
9.787420e-01
1.084670e+00
6.057430e-01
7.018520e-01
7.959180e-01
8.879410e-01
9.779200e-01
1.216010e+00
1.377620e+00
1.502380e+00
1.590290e+00
1.641350e+00
1.203710e+00
1.402010e+00
1.553840e+00
1.659210e+00
1.718110e+00
1.159930e+00
1.382500e+00
1.551990e+00
1.668410e+00
1.731740e+00
1.084670e+00
1.319100e+00
1.496840e+00
1.617880e+00
1.682230e+00
9.779200e-01
1.211800e+00
1.388370e+00
1.507630e+00
1.569590e+00
1.641350e+00
1.610190e+00
1.551350e+00
1.464810e+00
1.350580e+00
1.718110e+00
1.662580e+00
1.583800e+00
1.481760e+00
1.356460e+00
1.731740e+00
1.659010e+00
1.568140e+00
1.459120e+00
1.331960e+00
1.682230e+00
1.599480e+00
1.504370e+00
1.396910e+00
1.277110e+00
1.569590e+00
1.483980e+00
1.392490e+00
1.295120e+00
1.191880e+00
1.350580e+00
1.185460e+00
1.043210e+00
9.238120e-01
8.272800e-01
1.356460e+00
1.169420e+00
1.011140e+00
8.816100e-01
7.808320e-01
1.331960e+00
1.129760e+00
9.614140e-01
8.269360e-01
7.263220e-01
1.277110e+00
1.066470e+00
8.940310e-01
7.597910e-01
6.637510e-01
1.191880e+00
9.795570e-01
8.089890e-01
6.801760e-01
5.931170e-01
8.272800e-01
7.476710e-01
6.751440e-01
6.097000e-01
5.513380e-01
7.808320e-01
7.068180e-01
6.382760e-01
5.752070e-01
5.176110e-01
7.263220e-01
6.607450e-01
5.983080e-01
5.390110e-01
4.828530e-01
6.637510e-01
6.094530e-01
5.552400e-01
5.011100e-01
4.470650e-01
5.931170e-01
5.529420e-01
5.090720e-01
4.615060e-01
4.102450e-01
5.513380e-01
5.072690e-01
4.662520e-01
4.282860e-01
3.933700e-01
5.176110e-01
4.772960e-01
4.395260e-01
4.043000e-01
3.716190e-01
4.828530e-01
4.469010e-01
4.128200e-01
3.806110e-01
3.502730e-01
4.470650e-01
4.160830e-01
3.861350e-01
3.572180e-01
3.293330e-01
4.102450e-01
3.848440e-01
3.594690e-01
3.341210e-01
3.087990e-01
3.933700e-01
3.643870e-01
3.377660e-01
3.135070e-01
2.916110e-01
3.716190e-01
3.450330e-01
3.205180e-01
2.980760e-01
2.777060e-01
3.502730e-01
3.262010e-01
3.038710e-01
2.832830e-01
2.644370e-01
3.293330e-01
3.078930e-01
2.878250e-01
2.691280e-01
2.518040e-01
3.087990e-01
2.901080e-01
2.723780e-01
2.556120e-01
2.398080e-01
2.916110e-01
2.719990e-01
2.539810e-01
2.375570e-01
2.227270e-01
2.777060e-01
2.595430e-01
2.428090e-01
2.275050e-01
2.136300e-01
2.644370e-01
2.477310e-01
2.322800e-01
2.180860e-01
2.051480e-01
2.518040e-01
2.365620e-01
2.223950e-01
2.093010e-01
1.972820e-01
2.398080e-01
2.260380e-01
2.131530e-01
2.011500e-01
1.900320e-01
2.227270e-01
2.090440e-01
1.964120e-01
1.848290e-01
1.742970e-01
2.136300e-01
2.008190e-01
1.889690e-01
1.780790e-01
1.681500e-01
2.051480e-01
1.931950e-01
1.821120e-01
1.718990e-01
1.625560e-01
1.972820e-01
1.861720e-01
1.758400e-01
1.662880e-01
1.575150e-01
1.900320e-01
1.797500e-01
1.701550e-01
1.612470e-01
1.530250e-01
1.742970e-01
1.644720e-01
1.553420e-01
1.469050e-01
1.391610e-01
1.681500e-01
1.588620e-01
1.502210e-01
1.422260e-01
1.348780e-01
1.625560e-01
1.537870e-01
1.456200e-01
1.380530e-01
1.310880e-01
1.575150e-01
1.492470e-01
1.415370e-01
1.343850e-01
1.277900e-01
1.530250e-01
1.452420e-01
1.379740e-01
1.312220e-01
1.249850e-01
1.391610e-01
1.318550e-01
1.250670e-01
1.187970e-01
1.130470e-01
1.348780e-01
1.279300e-01
1.214620e-01
1.154740e-01
1.099670e-01
1.310880e-01
1.244780e-01
1.183170e-01
1.126050e-01
1.073410e-01
1.277900e-01
1.215000e-01
1.156330e-01
1.101900e-01
1.051700e-01
1.249850e-01
1.189950e-01
1.134090e-01
1.082280e-01
1.034520e-01
1.130470e-01
1.075640e-01
1.024390e-01
9.767280e-02
9.326440e-02
1.099670e-01
1.047260e-01
9.981000e-02
9.521760e-02
9.094930e-02
1.073410e-01
1.023200e-01
9.760480e-02
9.319640e-02
8.909470e-02
1.051700e-01
1.003440e-01
9.582360e-02
9.160920e-02
8.770050e-02
1.034520e-01
9.879840e-02
9.446640e-02
9.045590e-02
8.676690e-02
8.939170e-02
9.318630e-02
9.714700e-02
1.012740e-01
1.055660e-01
8.740010e-02
9.092660e-02
9.465110e-02
9.857370e-02
1.026940e-01
8.530680e-02
8.861110e-02
9.212290e-02
9.584210e-02
9.976870e-02
8.311190e-02
8.623990e-02
8.956220e-02
9.307880e-02
9.678960e-02
8.081530e-02
8.381310e-02
8.696930e-02
9.028390e-02
9.375700e-02
1.055660e-01
1.101450e-01
1.150890e-01
1.203980e-01
1.260730e-01
1.026940e-01
1.070030e-01
1.116590e-01