<?xml version="1.0"?>
<VTKFile type="UnstructuredGrid" version="0.1" byte_order="LittleEndian" compressor="vtkZLibDataCompressor">
<UnstructuredGrid>
<Piece NumberOfPoints="10000" NumberOfCells="6400">
<Points>
<DataArray type="Float32" NumberOfComponents="3" format="ascii">
-3.360000e+00 0.000000e+00 0.000000e+00
-3.276000e+00 0.000000e+00 0.000000e+00
-3.192000e+00 0.000000e+00 0.000000e+00
-3.108000e+00 0.000000e+00 0.000000e+00
-3.024000e+00 0.000000e+00 0.000000e+00
-3.360000e+00 6.412500e-02 0.000000e+00
-3.276000e+00 6.412500e-02 0.000000e+00
-3.192000e+00 6.412500e-02 0.000000e+00
-3.108000e+00 6.412500e-02 0.000000e+00
-3.024000e+00 6.412500e-02 0.000000e+00
-3.360000e+00 1.282500e-01 0.000000e+00
-3.276000e+00 1.282500e-01 0.000000e+00
-3.192000e+00 1.282500e-01 0.000000e+00
-3.108000e+00 1.282500e-01 0.000000e+00
-3.024000e+00 1.282500e-01 0.000000e+00
-3.360000e+00 1.923750e-01 0.000000e+00
-3.276000e+00 1.923750e-01 0.000000e+00
-3.192000e+00 1.923750e-01 0.000000e+00
-3.108000e+00 1.923750e-01 0.000000e+00
-3.024000e+00 1.923750e-01 0.000000e+00
-3.360000e+00 2.565000e-01 0.000000e+00
-3.276000e+00 2.565000e-01 0.000000e+00
-3.192000e+00 2.565000e-01 0.000000e+00
-3.108000e+00 2.565000e-01 0.000000e+00
-3.024000e+00 2.565000e-01 0.000000e+00
-3.024000e+00 0.000000e+00 0.000000e+00
-2.940000e+00 0.000000e+00 0.000000e+00
-2.856000e+00 0.000000e+00 0.000000e+00
-2.772000e+00 0.000000e+00 0.000000e+00
-2.688000e+00 0.000000e+00 0.000000e+00
-3.024000e+00 6.412500e-02 0.000000e+00
-2.940000e+00 6.412500e-02 0.000000e+00
-2.856000e+00 6.412500e-02 0.000000e+00
-2.772000e+00 6.412500e-02 0.000000e+00
-2.688000e+00 6.412500e-02 0.000000e+00
-3.024000e+00 1.282500e-01 0.000000e+00
-2.940000e+00 1.282500e-01 0.000000e+00
-2.856000e+00 1.282500e-01 0.000000e+00
-2.772000e+00 1.282500e-01 0.000000e+00
-2.688000e+00 1.282500e-01 0.000000e+00
-3.024000e+00 1.923750e-01 0.000000e+00
-2.940000e+00 1.923750e-01 0.000000e+00
-2.856000e+00 1.923750e-01 0.000000e+00
-2.772000e+00 1.923750e-01 0.000000e+00
-2.688000e+00 1.923750e-01 0.000000e+00
-3.024000e+00 2.565000e-01 0.000000e+00
-2.940000e+00 2.565000e-01 0.000000e+00
-2.856000e+00 2.565000e-01 0.000000e+00
-2.772000e+00 2.565000e-01 0.000000e+00
-2.688000e+00 2.565000e-01 0.000000e+00
-2.688000e+00 0.000000e+00 0.000000e+00
-2.604000e+00 0.000000e+00 0.000000e+00
-2.520000e+00 0.000000e+00 0.000000e+00
-2.436000e+00 0.000000e+00 0.000000e+00
-2.352000e+00 0.000000e+00 0.000000e+00
-2.688000e+00 6.412500e-02 0.000000e+00
-2.604000e+00 6.412500e-02 0.000000e+00
-2.520000e+00 6.412500e-02 0.000000e+00
-2.436000e+00 6.412500e-02 0.000000e+00
-2.352000e+00 6.412500e-02 0.000000e+00
-2.688000e+00 1.282500e-01 0.000000e+00
-2.604000e+00 1.282500e-01 0.000000e+00
-2.520000e+00 1.282500e-01 0.000000e+00
-2.436000e+00 1.282500e-01 0.000000e+00
-2.352000e+00 1.282500e-01 0.000000e+00
-2.688000e+00 1.923750e-01 0.000000e+00
-2.604000e+00 1.923750e-01 0.000000e+00
-2.520000e+00 1.923750e-01 0.000000e+00
-2.436000e+00 1.923750e-01 0.000000e+00
-2.352000e+00 1.923750e-01 0.000000e+00
-2.688000e+00 2.565000e-01 0.000000e+00
-2.604000e+00 2.565000e-01 0.000000e+00
-2.520000e+00 2.565000e-01 0.000000e+00
-2.436000e+00 2.565000e-01 0.000000e+00
-2.352000e+00 2.565000e-01 0.000000e+00
-2.352000e+00 0.000000e+00 0.000000e+00
-2.268000e+00 0.000000e+00 0.000000e+00
-2.184000e+00 0.000000e+00 0.000000e+00
-2.100000e+00 0.000000e+00 0.000000e+00
-2.016000e+00 0.000000e+00 0.000000e+00
-2.352000e+00 6.412500e-02 0.000000e+00
-2.268000e+00 6.412500e-02 0.000000e+00
-2.184000e+00 6.412500e-02 0.000000e+00
-2.100000e+00 6.412500e-02 0.000000e+00
-2.016000e+00 6.412500e-02 0.000000e+00
-2.352000e+00 1.282500e-01 0.000000e+00
-2.268000e+00 1.282500e-01 0.000000e+00
-2.184000e+00 1.282500e-01 0.000000e+00
-2.100000e+00 1.282500e-01 0.000000e+00
-2.016000e+00 1.282500e-01 0.000000e+00
-2.352000e+00 1.923750e-01 0.000000e+00
-2.268000e+00 1.923750e-01 0.000000e+00
-2.184000e+00 1.923750e-01 0.000000e+00
-2.100000e+00 1.923750e-01 0.000000e+00
-2.016000e+00 1.923750e-01 0.000000e+00
-2.352000e+00 2.565000e-01 0.000000e+00
-2.268000e+00 2.565000e-01 0.000000e+00
-2.184000e+00 2.565000e-01 0.000000e+00
-2.100000e+00 2.565000e-01 0.000000e+00
-2.016000e+00 2.565000e-01 0.000000e+00
-2.016000e+00 0.000000e+00 0.000000e+00
-1.932000e+00 0.000000e+00 0.000000e+00
-1.848000e+00 0.000000e+00 0.000000e+00
-1.764000e+00 0.000000e+00 0.000000e+00
-1.680000e+00 0.000000e+00 0.000000e+00
-2.016000e+00 6.412500e-02 0.000000e+00
-1.932000e+00 6.412500e-02 0.000000e+00
-1.848000e+00 6.412500e-02 0.000000e+00
-1.764000e+00 6.412500e-02 0.000000e+00
-1.680000e+00 6.412500e-02 0.000000e+00
-2.016000e+00 1.282500e-01 0.000000e+00
-1.932000e+00 1.282500e-01 0.000000e+00
-1.848000e+00 1.282500e-01 0.000000e+00
-1.764000e+00 1.282500e-01 0.000000e+00
-1.680000e+00 1.282500e-01 0.000000e+00
-2.016000e+00 1.923750e-01 0.000000e+00
-1.932000e+00 1.923750e-01 0.000000e+00
-1.848000e+00 1.923750e-01 0.000000e+00
-1.764000e+00 1.923750e-01 0.000000e+00
-1.680000e+00 1.923750e-01 0.000000e+00
-2.016000e+00 2.565000e-01 0.000000e+00
-1.932000e+00 2.565000e-01 0.000000e+00
-1.848000e+00 2.565000e-01 0.000000e+00
-1.764000e+00 2.565000e-01 0.000000e+00
-1.680000e+00 2.565000e-01 0.000000e+00
-1.680000e+00 0.000000e+00 0.000000e+00
-1.596000e+00 0.000000e+00 0.000000e+00
-1.512000e+00 0.000000e+00 0.000000e+00
-1.428000e+00 0.000000e+00 0.000000e+00
-1.344000e+00 0.000000e+00 0.000000e+00
-1.680000e+00 6.412500e-02 0.000000e+00
-1.596000e+00 6.412500e-02 0.000000e+00
-1.512000e+00 6.412500e-02 0.000000e+00
-1.428000e+00 6.412500e-02 0.000000e+00
-1.344000e+00 6.412500e-02 0.000000e+00
-1.680000e+00 1.282500e-01 0.000000e+00
-1.596000e+00 1.282500e-01 0.000000e+00
-1.512000e+00 1.282500e-01 0.000000e+00
-1.428000e+00 1.282500e-01 0.000000e+00
-1.344000e+00 1.282500e-01 0.000000e+00
-1.680000e+00 1.923750e-01 0.000000e+00
-1.596000e+00 1.923750e-01 0.000000e+00
-1.512000e+00 1.923750e-01 0.000000e+00
-1.428000e+00 1.923750e-01 0.000000e+00
-1.344000e+00 1.923750e-01 0.000000e+00
-1.680000e+00 2.565000e-01 0.000000e+00
-1.596000e+00 2.565000e-01 0.000000e+00
-1.512000e+00 2.565000e-01 0.000000e+00
-1.428000e+00 2.565000e-01 0.000000e+00
-1.344000e+00 2.565000e-01 0.000000e+00
-1.344000e+00 0.000000e+00 0.000000e+00
-1.260000e+00 0.000000e+00 0.000000e+00
-1.176000e+00 0.000000e+00 0.000000e+00
-1.092000e+00 0.000000e+00 0.000000e+00
-1.008000e+00 0.000000e+00 0.000000e+00
-1.344000e+00 6.412500e-02 0.000000e+00
-1.260000e+00 6.412500e-02 0.000000e+00
-1.176000e+00 6.412500e-02 0.000000e+00
-1.092000e+00 6.412500e-02 0.000000e+00
-1.008000e+00 6.412500e-02 0.000000e+00
-1.344000e+00 1.282500e-01 0.000000e+00
-1.260000e+00 1.282500e-01 0.000000e+00
-1.176000e+00 1.282500e-01 0.000000e+00
-1.092000e+00 1.282500e-01 0.000000e+00
-1.008000e+00 1.282500e-01 0.000000e+00
-1.344000e+00 1.923750e-01 0.000000e+00
-1.260000e+00 1.923750e-01 0.000000e+00
-1.176000e+00 1.923750e-01 0.000000e+00
-1.092000e+00 1.923750e-01 0.000000e+00
-1.008000e+00 1.923750e-01 0.000000e+00
-1.344000e+00 2.565000e-01 0.000000e+00
-1.260000e+00 2.565000e-01 0.000000e+00
-1.176000e+00 2.565000e-01 0.000000e+00
-1.092000e+00 2.565000e-01 0.000000e+00
-1.008000e+00 2.565000e-01 0.000000e+00
-1.008000e+00 0.000000e+00 0.000000e+00
-9.240000e-01 0.000000e+00 0.000000e+00
-8.400000e-01 0.000000e+00 0.000000e+00
-7.560000e-01 0.000000e+00 0.000000e+00
-6.720000e-01 0.000000e+00 0.000000e+00
-1.008000e+00 6.412500e-02 0.000000e+00
-9.240000e-01 6.412500e-02 0.000000e+00
-8.400000e-01 6.412500e-02 0.000000e+00
-7.560000e-01 6.412500e-02 0.000000e+00
-6.720000e-01 6.412500e-02 0.000000e+00
-1.008000e+00 1.282500e-01 0.000000e+00
-9.240000e-01 1.282500e-01 0.000000e+00
-8.400000e-01 1.282500e-01 0.000000e+00
-7.560000e-01 1.282500e-01 0.000000e+00
-6.720000e-01 1.282500e-01 0.000000e+00
-1.008000e+00 1.923750e-01 0.000000e+00
-9.240000e-01 1.923750e-01 0.000000e+00
-8.400000e-01 1.923750e-01 0.000000e+00
-7.560000e-01 1.923750e-01 0.000000e+00
-6.720000e-01 1.923750e-01 0.000000e+00
-1.008000e+00 2.565000e-01 0.000000e+00
-9.240000e-01 2.565000e-01 0.000000e+00
-8.400000e-01 2.565000e-01 0.000000e+00
-7.560000e-01 2.565000e-01 0.000000e+00
-6.720000e-01 2.565000e-01 0.000000e+00
-6.720000e-01 0.000000e+00 0.000000e+00
-5.880000e-01 0.000000e+00 0.000000e+00
-5.040000e-01 0.000000e+00 0.000000e+00
-4.200000e-01 0.000000e+00 0.000000e+00
-3.360000e-01 0.000000e+00 0.000000e+00
-6.720000e-01 6.412500e-02 0.000000e+00
-5.880000e-01 6.412500e-02 0.000000e+00
-5.040000e-01 6.412500e-02 0.000000e+00
-4.200000e-01 6.412500e-02 0.000000e+00
-3.360000e-01 6.412500e-02 0.000000e+00
-6.720000e-01 1.282500e-01 0.000000e+00
-5.880000e-01 1.282500e-01 0.000000e+00
-5.040000e-01 1.282500e-01 0.000000e+00
-4.200000e-01 1.282500e-01 0.000000e+00
-3.360000e-01 1.282500e-01 0.000000e+00
-6.720000e-01 1.923750e-01 0.000000e+00
-5.880000e-01 1.923750e-01 0.000000e+00
-5.040000e-01 1.923750e-01 0.000000e+00
-4.200000e-01 1.923750e-01 0.000000e+00
-3.360000e-01 1.923750e-01 0.000000e+00
-6.720000e-01 2.565000e-01 0.000000e+00
-5.880000e-01 2.565000e-01 0.000000e+00
-5.040000e-01 2.565000e-01 0.000000e+00
-4.200000e-01 2.565000e-01 0.000000e+00
-3.360000e-01 2.565000e-01 0.000000e+00
-3.360000e-01 0.000000e+00 0.000000e+00
-2.520000e-01 0.000000e+00 0.000000e+00
-1.680000e-01 0.000000e+00 0.000000e+00
-8.400000e-02 0.000000e+00 0.000000e+00
-4.440890e-16 0.000000e+00 0.000000e+00
-3.360000e-01 6.412500e-02 0.000000e+00
-2.520000e-01 6.412500e-02 0.000000e+00
-1.680000e-01 6.412500e-02 0.000000e+00
-8.400000e-02 6.412500e-02 0.000000e+00
-4.440890e-16 6.412500e-02 0.000000e+00
-3.360000e-01 1.282500e-01 0.000000e+00
-2.520000e-01 1.282500e-01 0.000000e+00
-1.680000e-01 1.282500e-01 0.000000e+00
-8.400000e-02 1.282500e-01 0.000000e+00
-4.440890e-16 1.282500e-01 0.000000e+00
-3.360000e-01 1.923750e-01 0.000000e+00
-2.520000e-01 1.923750e-01 0.000000e+00
-1.680000e-01 1.923750e-01 0.000000e+00
[...]
<PointData>
<DataArray type="Float32" Name="V1" format="ascii">
0.000000e+00
0.000000e+00
0.000000e+00
0.000000e+00
0.000000e+00
6.347820e-02
5.960310e-02
5.535010e-02
5.071920e-02
4.571020e-02
1.013490e-01
9.768310e-02
9.291860e-02
8.705520e-02
8.009270e-02
1.136110e-01
1.142400e-01
1.127050e-01
1.090080e-01
1.031470e-01
1.002660e-01
1.092730e-01
1.147110e-01
1.165780e-01
1.148740e-01
0.000000e+00
0.000000e+00
0.000000e+00
0.000000e+00
0.000000e+00
4.571020e-02
4.046050e-02
3.673670e-02
3.453860e-02
3.386640e-02
8.009270e-02
7.257960e-02
6.716700e-02
6.385490e-02
6.264330e-02
1.031470e-01
9.635730e-02
9.129110e-02
8.794890e-02
8.633080e-02
1.148740e-01
1.117930e-01
1.091090e-01
1.068210e-01
1.049290e-01
0.000000e+00
0.000000e+00
0.000000e+00
0.000000e+00
0.000000e+00
3.386640e-02
3.339470e-02
3.318450e-02
3.323570e-02
3.354840e-02
6.264330e-02
6.190050e-02
6.166110e-02
6.192510e-02
6.269250e-02
8.633080e-02
8.551730e-02
8.542980e-02
8.606820e-02
8.743260e-02
1.049290e-01
1.042450e-01
1.044910e-01
1.056650e-01
1.077680e-01
0.000000e+00
0.000000e+00
0.000000e+00
0.000000e+00
0.000000e+00
3.354840e-02
3.398320e-02
3.475720e-02
3.587030e-02
3.732260e-02
6.269250e-02
6.369230e-02
6.525130e-02
6.736980e-02
7.004750e-02
8.743260e-02
8.912710e-02
9.148240e-02
9.449830e-02
9.817490e-02
1.077680e-01
1.102880e-01
1.134500e-01
1.172560e-01
1.217050e-01
0.000000e+00
0.000000e+00
0.000000e+00
0.000000e+00
0.000000e+00
3.732260e-02
3.899150e-02
4.100190e-02
4.335380e-02
4.604700e-02
7.004750e-02
7.311340e-02
7.677810e-02
8.104150e-02
8.590370e-02
9.817490e-02
1.023660e-01
1.073280e-01
1.130630e-01
1.195700e-01
1.217050e-01
1.267480e-01
1.326530e-01
1.394190e-01
1.470460e-01
0.000000e+00
0.000000e+00
0.000000e+00
0.000000e+00
0.000000e+00
4.604700e-02
4.899610e-02
5.257690e-02
5.678950e-02
6.163390e-02
8.590370e-02
9.120830e-02
9.757030e-02
1.049900e-01
1.134660e-01
1.195700e-01
1.266370e-01
1.349800e-01
1.446010e-01
1.554980e-01
1.470460e-01
1.552810e-01
1.648070e-01
1.756220e-01
1.877280e-01
0.000000e+00
0.000000e+00
0.000000e+00
0.000000e+00
0.000000e+00
6.163390e-02
6.668110e-02
7.289800e-02
8.028460e-02
8.884080e-02
1.134660e-01
1.222790e-01
1.330140e-01
1.456710e-01
1.602500e-01
1.554980e-01
1.667940e-01
1.803480e-01
1.961590e-01
2.142270e-01
1.877280e-01
2.002270e-01
2.149000e-01
2.317490e-01
2.507730e-01
0.000000e+00
0.000000e+00
0.000000e+00
0.000000e+00
0.000000e+00
8.884080e-02
9.719190e-02
1.076000e-01
1.200650e-01
1.345860e-01
1.602500e-01
1.745060e-01
1.920540e-01
2.128940e-01
2.370260e-01
2.142270e-01
2.319430e-01
2.533630e-01
2.784890e-01
3.073200e-01
2.507730e-01
2.695010e-01
2.915270e-01
3.168490e-01
3.454670e-01
0.000000e+00
0.000000e+00
0.000000e+00
0.000000e+00
0.000000e+00
1.345860e-01
1.488260e-01
1.654050e-01
1.843250e-01
2.055840e-01
2.370260e-01
2.608730e-01
2.883850e-01
3.195630e-01
3.544050e-01
3.073200e-01
3.361420e-01
3.689400e-01
4.057140e-01
4.464640e-01
3.454670e-01
3.746330e-01
4.070700e-01
4.427790e-01
4.817590e-01
0.000000e+00
0.000000e+00
0.000000e+00
0.000000e+00
0.000000e+00
2.055840e-01
2.297060e-01
2.535400e-01
2.770870e-01
3.003450e-01
3.544050e-01
3.942680e-01
4.338110e-01
4.730350e-01
5.119390e-01
4.464640e-01
4.936870e-01
5.408140e-01
5.878460e-01
6.347830e-01
4.817590e-01
5.279610e-01
5.745480e-01
6.215190e-01
6.688750e-01
0.000000e+00
0.000000e+00
0.000000e+00
0.000000e+00
0.000000e+00
3.003450e-01
3.309550e-01
3.558140e-01
3.749240e-01
3.882830e-01
5.119390e-01
5.631630e-01
6.059920e-01
6.404250e-01
6.664650e-01
6.347830e-01
6.966240e-01
7.505320e-01
7.965050e-01
8.345450e-01
6.688750e-01
7.313390e-01
7.894350e-01
8.431640e-01
8.925240e-01
0.000000e+00
0.000000e+00
0.000000e+00
0.000000e+00
0.000000e+00
3.882830e-01
3.984540e-01
4.003850e-01
3.940770e-01
3.795280e-01
6.664650e-01
6.884740e-01
6.977580e-01
6.943150e-01
6.781460e-01
8.345450e-01
8.700600e-01
8.921160e-01
9.007140e-01
8.958530e-01
8.925240e-01
9.432110e-01
9.834610e-01
1.013270e+00
1.032650e+00
0.000000e+00
0.000000e+00
0.000000e+00
0.000000e+00
0.000000e+00
3.795280e-01
3.415830e-01
3.015320e-01
2.593740e-01
2.151090e-01
6.781460e-01
6.248400e-01
5.654560e-01
4.999940e-01
4.284530e-01
8.958530e-01
8.497700e-01
7.917730e-01
7.218610e-01
6.400330e-01
1.032650e+00
1.016370e+00
9.804830e-01
9.249740e-01
8.498490e-01
0.000000e+00
0.000000e+00
0.000000e+00
0.000000e+00
0.000000e+00
2.151090e-01
1.723860e-01
1.323580e-01
9.502390e-02
6.038470e-02
4.284530e-01
3.530420e-01
2.805100e-01
2.108550e-01
1.440780e-01
6.400330e-01
5.419700e-01
4.444560e-01
3.474930e-01
2.510800e-01
8.498490e-01
7.391670e-01
6.241970e-01
5.049380e-01
3.813910e-01
0.000000e+00
0.000000e+00
0.000000e+00
0.000000e+00
0.000000e+00
6.038470e-02
3.837590e-02
2.025540e-02
6.023220e-03
-4.320710e-03
1.440780e-01
1.009540e-01
6.583490e-02
3.872130e-02
1.961280e-02
2.510800e-01
1.877340e-01
1.367390e-01
9.809410e-02
7.180060e-02
3.813910e-01
2.987160e-01
2.329660e-01
1.841420e-01
1.522430e-01
0.000000e+00
0.000000e+00
0.000000e+00
0.000000e+00
0.000000e+00
-4.320710e-03
-1.285060e-02
-1.475700e-02
-1.003990e-02
1.300630e-03
1.961280e-02
3.462120e-03
-1.592130e-03
4.450060e-03
2.158870e-02
7.180060e-02
4.893820e-02
3.949460e-02
4.347000e-02
6.086420e-02
1.522430e-01
1.235780e-01
1.085030e-01
1.070200e-01
1.191270e-01
0.000000e+00
0.000000e+00
0.000000e+00
0.000000e+00
0.000000e+00
1.300630e-03
8.321580e-03
1.439340e-02
1.951600e-02
2.368940e-02
2.158870e-02
3.244550e-02
4.155770e-02
4.892530e-02
5.454840e-02
6.086420e-02
7.237170e-02
8.149300e-02
8.822800e-02
9.257680e-02
1.191270e-01
1.281000e-01
1.341990e-01
1.374240e-01
1.377750e-01
0.000000e+00
0.000000e+00
0.000000e+00
0.000000e+00
0.000000e+00
2.368940e-02
2.749160e-02
3.005590e-02
3.138240e-02
3.147120e-02
5.454840e-02
5.957310e-02
6.271800e-02
6.398330e-02
6.336890e-02
9.257680e-02
9.624450e-02
9.798650e-02
9.780270e-02
9.569320e-02
1.377750e-01
1.375060e-01
1.358610e-01
1.328410e-01
1.284440e-01
0.000000e+00
0.000000e+00
0.000000e+00
0.000000e+00
0.000000e+00
3.147120e-02
3.213610e-02
3.223220e-02
3.175940e-02
3.071760e-02
6.336890e-02
6.371630e-02
6.321570e-02
6.186710e-02
5.967040e-02
9.569320e-02
9.474060e-02
9.295050e-02
9.032310e-02
8.685820e-02
1.284440e-01
1.252090e-01
1.214370e-01
1.171270e-01
1.122810e-01
0.000000e+00
0.000000e+00
0.000000e+00
0.000000e+00
0.000000e+00
3.071760e-02
3.051090e-02
2.928070e-02
2.702690e-02
2.374950e-02
5.967040e-02
5.859370e-02
5.619110e-02
5.246280e-02
4.740850e-02
8.685820e-02
8.424820e-02
8.073140e-02
7.630770e-02
7.097710e-02
1.122810e-01
1.074750e-01
1.029010e-01
9.856160e-02
9.445530e-02
1.002660e-01
1.092730e-01
1.147110e-01
1.165780e-01
1.148740e-01
9.945850e-02
1.076340e-01
1.135540e-01
1.172170e-01
1.186240e-01
9.848610e-02
1.056560e-01
1.115840e-01
1.162690e-01
1.197120e-01
9.734850e-02
1.033390e-01
1.088000e-01
1.137340e-01
1.181390e-01
9.604590e-02
1.006820e-01
1.052030e-01
1.096110e-01
1.139050e-01
1.148740e-01
1.117930e-01
1.091090e-01
1.068210e-01
1.049290e-01
1.186240e-01
1.181780e-01
1.175550e-01
1.167550e-01
1.157760e-01
1.197120e-01
1.212420e-01
1.222190e-01
1.226440e-01
1.225170e-01
1.181390e-01
1.209840e-01
1.231010e-01
1.244890e-01
1.251500e-01
1.139050e-01
1.174050e-01
1.202000e-01
1.222900e-01
1.236760e-01
1.049290e-01
1.042450e-01
1.044910e-01
1.056650e-01
1.077680e-01
1.157760e-01
1.155590e-01
1.162130e-01
1.177380e-01
1.201330e-01
1.225170e-01
1.228010e-01
1.238550e-01
1.256790e-01
1.282730e-01
1.251500e-01
1.259700e-01
1.274160e-01
1.294880e-01
1.321870e-01
1.236760e-01
1.250650e-01
1.268950e-01
1.291660e-01
1.318770e-01
1.077680e-01
1.102880e-01
1.134500e-01
1.172560e-01
1.217050e-01
1.201330e-01
1.230290e-01
1.265640e-01
1.307390e-01
1.355540e-01
1.282730e-01
1.314080e-01
1.351650e-01
1.395430e-01
1.445440e-01
1.321870e-01
1.354240e-01
1.392510e-01
1.436680e-01
1.486760e-01
1.318770e-01
1.350790e-01
1.388240e-01
1.431140e-01
1.479490e-01
1.217050e-01
1.267480e-01
1.326530e-01
1.394190e-01
1.470460e-01
1.355540e-01
1.409230e-01
1.471500e-01
1.542330e-01
1.621740e-01
1.445440e-01
1.500580e-01
1.564050e-01
1.635840e-01
1.715950e-01
1.486760e-01
1.541530e-01
1.604180e-01
1.674700e-01
1.753090e-01
1.479490e-01
1.532090e-01
1.591900e-01
1.658930e-01
1.733160e-01
1.470460e-01
1.552810e-01
1.648070e-01
1.756220e-01
1.877280e-01
1.621740e-01
1.706800e-01
1.804360e-01
1.914440e-01
2.037030e-01
1.715950e-01
1.801240e-01
1.898500e-01
2.007710e-01
2.128890e-01
1.753090e-01
1.836150e-01
1.930470e-01
2.036040e-01
2.152870e-01
1.733160e-01
1.811520e-01
1.900270e-01
1.999420e-01
2.108970e-01
1.877280e-01
2.002270e-01
2.149000e-01
2.317490e-01
2.507730e-01
2.037030e-01
2.161800e-01
2.307820e-01
2.475080e-01
2.663600e-01
2.128890e-01
2.250920e-01
2.393520e-01
2.556690e-01
2.740450e-01
2.152870e-01
2.269620e-01
2.406100e-01
2.562320e-01
2.738280e-01
2.108970e-01
2.217910e-01
2.345580e-01
2.491970e-01
2.657080e-01
2.507730e-01
2.695010e-01
2.915270e-01
3.168490e-01
3.454670e-01
2.663600e-01
2.845110e-01
3.060380e-01
3.309420e-01
3.592210e-01
2.740450e-01
2.913560e-01
3.121260e-01
3.363550e-01
3.640420e-01
2.738280e-01
2.900370e-01
3.097910e-01
3.330880e-01
3.599310e-01
2.657080e-01
2.805530e-01
2.990310e-01
3.211420e-01
3.468870e-01
3.454670e-01
3.746330e-01
4.070700e-01
4.427790e-01
4.817590e-01
3.592210e-01
3.872320e-01
4.190140e-01
4.545690e-01
4.938950e-01
3.640420e-01
3.906180e-01
4.214570e-01
4.565590e-01
4.959240e-01
3.599310e-01
3.847910e-01
4.143970e-01
4.487500e-01
4.878490e-01
3.468870e-01
3.697510e-01
3.978360e-01
4.311420e-01
4.696690e-01
4.817590e-01
5.279610e-01
5.745480e-01
6.215190e-01
6.688750e-01
4.938950e-01
5.402280e-01
5.876700e-01
6.362210e-01
6.858800e-01
4.959240e-01
5.419760e-01
5.897670e-01
6.392970e-01
6.905670e-01
4.878490e-01
5.332050e-01
5.808380e-01
6.307490e-01
6.829370e-01
4.696690e-01
5.139160e-01
5.608850e-01
6.105760e-01
6.629890e-01
6.688750e-01
7.313390e-01
7.894350e-01
8.431640e-01
8.925240e-01
6.858800e-01
7.539130e-01
8.174440e-01
8.764730e-01
9.310000e-01
6.905670e-01
7.636710e-01
8.321660e-01
8.960530e-01
9.553310e-01
6.829370e-01
7.606120e-01
8.336010e-01
9.019020e-01
9.655160e-01
6.629890e-01
7.447370e-01
8.217480e-01
8.940210e-01
9.615560e-01
8.925240e-01
9.432110e-01
9.834610e-01
1.013270e+00
1.032650e+00
9.310000e-01
9.908590e-01
1.040100e+00
1.078730e+00
1.106740e+00
9.553310e-01
1.023830e+00
1.081360e+00
1.127940e+00
1.163570e+00
9.655160e-01
1.042110e+00
1.107250e+00
1.160920e+00
1.203120e+00
9.615560e-01
1.045720e+00
1.117750e+00
1.177650e+00
1.225410e+00
1.032650e+00
1.016370e+00
9.804830e-01
9.249740e-01
8.498490e-01
1.106740e+00
1.101970e+00
1.081310e+00
1.044740e+00
9.922650e-01
1.163570e+00
1.166730e+00
1.156890e+00
1.134040e+00
1.098190e+00
1.203120e+00
1.210650e+00
1.207240e+00
1.192890e+00
1.167610e+00
1.225410e+00
1.233720e+00
1.232340e+00
1.221280e+00
1.200540e+00
8.498490e-01
7.391670e-01
6.241970e-01
5.049380e-01
3.813910e-01
9.922650e-01
8.970120e-01
7.883060e-01
6.661460e-01
5.305330e-01
1.098190e+00
1.018050e+00
9.191930e-01
8.016260e-01
6.653440e-01
1.167610e+00
1.102270e+00
1.016860e+00
9.113770e-01
7.858250e-01
1.200540e+00
1.149680e+00
1.081300e+00
9.954000e-01
8.919750e-01
3.813910e-01
2.987160e-01
2.329660e-01
1.841420e-01
1.522430e-01
5.305330e-01
4.292020e-01
3.469430e-01
2.837570e-01
2.396440e-01
6.653440e-01
5.527140e-01
4.585200e-01
3.827620e-01
3.254390e-01
7.858250e-01
6.692550e-01
5.676980e-01
4.811560e-01
4.096270e-01
8.919750e-01
7.788220e-01
6.744770e-01
5.789400e-01
4.922110e-01
1.522430e-01
1.235780e-01
1.085030e-01
1.070200e-01
1.191270e-01
2.396440e-01
1.993810e-01
1.741950e-01
1.640860e-01
1.690540e-01
3.254390e-01
2.737440e-01
2.381830e-01
2.187560e-01
2.154630e-01
4.096270e-01
3.466650e-01
3.004660e-01
2.710290e-01
2.583550e-01
4.922110e-01
4.181470e-01
3.610450e-01
3.209050e-01
2.977280e-01
1.191270e-01
1.281000e-01
1.341990e-01
1.374240e-01
1.377750e-01
1.690540e-01
1.750000e-01
1.778100e-01
1.774860e-01
1.740270e-01
2.154630e-01
2.170530e-01
2.156790e-01
2.113410e-01
2.040390e-01
2.583550e-01
2.542610e-01
2.478070e-01
2.389900e-01
2.278120e-01
2.977280e-01
2.866240e-01
2.741920e-01
2.604330e-01
2.453460e-01
1.377750e-01
1.375060e-01
1.358610e-01
1.328410e-01
1.284440e-01
1.740270e-01
1.698250e-01
1.647970e-01
1.589430e-01
1.522620e-01
2.040390e-01
1.960790e-01
1.878730e-01
1.794210e-01
1.707230e-01
2.278120e-01
2.162680e-01
2.050880e-01
1.942750e-01
1.838270e-01
2.453460e-01
2.303910e-01
2.164440e-01
2.035050e-01
1.915730e-01
1.284440e-01
1.252090e-01
1.214370e-01
1.171270e-01
1.122810e-01
1.522620e-01
1.473360e-01
1.419850e-01
1.362080e-01
1.300070e-01
1.707230e-01
1.643150e-01
1.576240e-01
1.506490e-01
1.433900e-01
1.838270e-01
1.761460e-01
1.683540e-01
1.604490e-01
1.524320e-01
1.915730e-01
1.828300e-01
1.741750e-01
1.656080e-01
1.571310e-01
1.122810e-01
1.074750e-01
1.029010e-01
9.856160e-02
9.445530e-02
1.300070e-01
1.241270e-01
1.187120e-01
1.137620e-01
1.092770e-01
1.433900e-01
1.366500e-01
1.305730e-01
1.251570e-01
1.204030e-01
1.524320e-01
1.450460e-01
1.384840e-01
1.327460e-01
1.278330e-01
1.571310e-01
1.493130e-01
1.424460e-01
1.365310e-01
1.315670e-01
9.604590e-02
1.006820e-01
1.052030e-01
1.096110e-01
1.139050e-01
9.458900e-02
9.870680e-02
1.027550e-01
1.067340e-01
1.106430e-01
9.299440e-02
9.674090e-02
1.004060e-01
1.039890e-01
1.074900e-01
9.126190e-02
9.478390e-02
9.815510e-02
1.013750e-01
1.044450e-01
8.939170e-02
9.283600e-02
9.600350e-02
9.889420e-02
1.015080e-01
1.139050e-01
1.174050e-01
1.202000e-01
1.222900e-01
1.236760e-01
1.106430e-01
1.140520e-01
1.169400e-01
1.193070e-01
1.211520e-01
1.074900e-01
1.107130e-01
1.135860e-01
1.161090e-01
1.182830e-01
1.044450e-01
1.073870e-01
1.101380e-01
1.126980e-01
1.150660e-01
1.015080e-01
1.040750e-01
1.065970e-01
1.090730e-01
1.115040e-01
1.236760e-01
1.250650e-01
1.268950e-01
1.291660e-01
1.318770e-01
1.211520e-01
1.229450e-01
1.250690e-01
1.275250e-01
1.303140e-01
1.182830e-01
1.203860e-01
1.227350e-01
1.253300e-01
1.281720e-01
1.150660e-01
1.173890e-01
1.198940e-01
1.225810e-01
1.254510e-01
1.115040e-01
1.139540e-01
1.165450e-01
1.192780e-01
1.221520e-01
1.318770e-01
1.350790e-01
1.388240e-01
1.431140e-01
1.479490e-01
1.303140e-01
1.335110e-01
1.372110e-01
1.414140e-01
1.461200e-01
1.281720e-01
1.313500e-01
1.349900e-01
1.390910e-01
1.436520e-01
1.254510e-01
1.285960e-01
1.321600e-01
1.361430e-01
1.405450e-01
1.221520e-01
1.252480e-01
1.287210e-01
1.325710e-01
1.367970e-01
1.479490e-01
1.532090e-01
1.591900e-01
1.658930e-01
1.733160e-01
1.461200e-01
1.512130e-01
1.569810e-01
1.634260e-01
1.705460e-01
1.436520e-01
1.485590e-01
1.540950e-01
1.602610e-01
1.670570e-01
1.405450e-01
1.452480e-01
1.505330e-01
1.563990e-01
1.628480e-01
1.367970e-01
1.412800e-01
1.462940e-01
1.518400e-01
1.579190e-01
1.733160e-01
1.811520e-01
1.900270e-01
1.999420e-01
2.108970e-01
1.705460e-01
1.780200e-01
1.864820e-01
1.959330e-01
2.063730e-01
1.670570e-01
1.741410e-01
1.821570e-01
1.911060e-01
2.009880e-01
1.628480e-01
1.695140e-01
1.770520e-01
1.854610e-01
1.947410e-01
1.579190e-01
1.641410e-01
1.711670e-01
1.789980e-01
1.876340e-01
2.108970e-01
2.217910e-01
2.345580e-01
2.491970e-01
2.657080e-01
2.063730e-01
2.167140e-01
2.288450e-01
2.427660e-01
2.584760e-01
2.009880e-01
2.107150e-01
2.221350e-01
2.352470e-01
2.500530e-01
1.947410e-01
2.037930e-01
2.144270e-01
2.266420e-01
2.404380e-01
1.876340e-01
1.959500e-01
2.057220e-01
2.169500e-01
2.296320e-01
2.657080e-01
2.805530e-01
2.990310e-01
3.211420e-01
3.468870e-01
2.584760e-01
2.722430e-01
2.897580e-01
3.110240e-01
3.360390e-01
2.500530e-01
2.626710e-01
2.790710e-01
2.992520e-01
3.232140e-01
2.404380e-01
2.518390e-01
2.669680e-01
2.858260e-01
3.084130e-01
2.296320e-01
2.397450e-01
2.534500e-01
2.707470e-01
2.916360e-01
3.468870e-01
3.697510e-01
3.978360e-01
4.311420e-01
4.696690e-01
3.360390e-01
3.568420e-01
3.835080e-01
4.160360e-01
4.544250e-01
3.232140e-01
3.414510e-01
3.662460e-01
3.975990e-01
4.355100e-01
3.084130e-01
3.235780e-01
3.460520e-01
3.758340e-01
4.129240e-01
2.916360e-01
3.032230e-01
3.229240e-01
3.507380e-01
3.866670e-01
4.696690e-01
5.139160e-01
5.608850e-01
6.105760e-01
6.629890e-01
4.544250e-01
4.974180e-01
5.431380e-01
5.915850e-01
6.427610e-01
4.355100e-01
4.755730e-01
5.184010e-01
5.639950e-01
6.123530e-01
4.129240e-01
4.483820e-01
4.866750e-01
5.278040e-01
5.717670e-01
3.866670e-01
4.158450e-01
4.479610e-01
4.830130e-01
5.210020e-01
6.629890e-01
7.447370e-01
8.217480e-01
8.940210e-01
9.615560e-01
6.427610e-01
7.290480e-01
8.089320e-01
8.824130e-01
9.494910e-01
6.123530e-01
7.006500e-01
7.800090e-01
8.504300e-01
9.119120e-01
5.717670e-01
6.595460e-01
7.349810e-01
7.980720e-01
8.488200e-01
5.210020e-01
6.057330e-01
6.738460e-01
7.253400e-01
7.602150e-01
9.615560e-01
1.045720e+00
1.117750e+00
1.177650e+00
1.225410e+00
9.494910e-01
1.037750e+00
1.114100e+00
1.178550e+00
1.231090e+00
9.119120e-01
1.001870e+00
1.080480e+00
1.147720e+00
1.203610e+00
8.488200e-01
9.380930e-01
1.016870e+00
1.085160e+00
1.142960e+00
7.602150e-01
8.464090e-01
9.232940e-01
9.908690e-01
1.049140e+00
1.225410e+00
1.233720e+00
1.232340e+00
1.221280e+00
1.200540e+00
1.231090e+00
1.243440e+00
1.246600e+00
1.240570e+00
1.225350e+00
1.203610e+00
1.218420e+00
1.226050e+00
1.226480e+00
1.219720e+00
1.142960e+00
1.158650e+00
1.170670e+00
1.179000e+00
1.183640e+00
1.049140e+00
1.064140e+00
1.080470e+00
1.098130e+00
1.117120e+00
1.200540e+00
1.149680e+00
1.081300e+00
9.954000e-01
8.919750e-01
1.225350e+00
1.171930e+00
1.107510e+00
1.032090e+00
9.456680e-01
1.219720e+00
1.166640e+00
1.107660e+00
1.042810e+00
9.720620e-01
1.183640e+00
1.133790e+00
1.081760e+00
1.027550e+00
9.711580e-01
1.117120e+00
1.073400e+00
1.029790e+00
9.863150e-01
9.429550e-01
8.919750e-01
7.788220e-01
6.744770e-01
5.789400e-01
4.922110e-01
9.456680e-01
8.444480e-01
7.461720e-01
6.508390e-01
5.584490e-01
9.720620e-01
8.834600e-01
7.929240e-01
7.004550e-01
6.060510e-01
9.711580e-01
8.958580e-01
8.147340e-01
7.277870e-01
6.350160e-01
9.429550e-01
8.816420e-01
8.116020e-01
7.328360e-01
6.453440e-01
4.922110e-01
4.181470e-01
3.610450e-01
3.209050e-01
2.977280e-01
5.584490e-01
4.831630e-01
4.212820e-01
3.728080e-01
3.377400e-01
6.060510e-01
5.328540e-01
4.691430e-01
4.149190e-01
3.701810e-01
6.350160e-01
5.672210e-01
5.046280e-01
4.472380e-01
3.950500e-01
6.453440e-01
5.862640e-01
5.277370e-01
4.697650e-01
4.123480e-01
2.977280e-01
2.866240e-01
2.741920e-01
2.604330e-01
2.453460e-01
3.377400e-01
3.164960e-01
2.960430e-01
2.763810e-01
2.575100e-01
3.701810e-01
3.399450e-01
3.124380e-01
2.876600e-01
2.656110e-01
3.950500e-01
3.569690e-01
3.233750e-01
2.942680e-01
2.696490e-01
4.123480e-01
3.675690e-01
3.288550e-01
2.962070e-01
2.696250e-01
2.453460e-01
2.303910e-01
2.164440e-01
2.035050e-01
1.915730e-01
2.575100e-01
2.399120e-01
2.237860e-01
2.091310e-01
1.959470e-01
2.656110e-01
2.460530e-01
2.283140e-01
2.123940e-01
1.982920e-01
2.696490e-01
2.488140e-01
2.300280e-01
2.132930e-01
1.986080e-01
2.696250e-01
2.481940e-01
2.289290e-01
2.118290e-01
1.968950e-01
1.915730e-01
1.828300e-01
1.741750e-01
1.656080e-01
1.571310e-01
1.959470e-01
1.861970e-01
1.768110e-01
1.677910e-01
1.591360e-01
1.982920e-01
1.877670e-01
1.778510e-01
1.685460e-01
1.598510e-01
1.986080e-01
1.875390e-01
1.772950e-01
1.678740e-01
1.592780e-01
1.968950e-01
1.855150e-01
1.751420e-01
1.657760e-01
1.574160e-01
1.571310e-01
1.493130e-01
1.424460e-01
1.365310e-01
1.315670e-01
1.591360e-01
1.511310e-01
1.441650e-01
1.382360e-01
1.333460e-01
1.598510e-01
1.517720e-01
1.447940e-01
1.389190e-01
1.341450e-01
1.592780e-01
1.512360e-01
1.443350e-01
1.385780e-01
1.339630e-01
1.574160e-01
1.495220e-01
1.427880e-01
1.372140e-01
1.328000e-01
8.939170e-02
9.283600e-02
9.600350e-02
9.889420e-02
1.015080e-01
8.740010e-02
9.060750e-02
9.354830e-02
9.622250e-02
9.863020e-02
8.530680e-02
8.827370e-02
9.099460e-02
9.346940e-02
9.569810e-02
8.311190e-02
8.583480e-02
8.834240e-02
9.063470e-02
9.271190e-02
8.081530e-02
8.329060e-02
8.559170e-02
8.771860e-02
8.967130e-02
1.015080e-01
1.040750e-01
1.065970e-01
1.090730e-01
1.115040e-01
9.863020e-02
1.009580e-01
1.033210e-01