<?xml version="1.0"?>
<VTKFile type="UnstructuredGrid" version="0.1" byte_order="LittleEndian" compressor="vtkZLibDataCompressor">
<UnstructuredGrid>
<Piece NumberOfPoints="10000" NumberOfCells="6400">
<Points>
<DataArray type="Float32" NumberOfComponents="3" format="ascii">
-3.360000e+00 0.000000e+00 0.000000e+00
-3.276000e+00 0.000000e+00 0.000000e+00
-3.192000e+00 0.000000e+00 0.000000e+00
-3.108000e+00 0.000000e+00 0.000000e+00
-3.024000e+00 0.000000e+00 0.000000e+00
-3.360000e+00 6.412500e-02 0.000000e+00
-3.276000e+00 6.412500e-02 0.000000e+00
-3.192000e+00 6.412500e-02 0.000000e+00
-3.108000e+00 6.412500e-02 0.000000e+00
-3.024000e+00 6.412500e-02 0.000000e+00
-3.360000e+00 1.282500e-01 0.000000e+00
-3.276000e+00 1.282500e-01 0.000000e+00
-3.192000e+00 1.282500e-01 0.000000e+00
-3.108000e+00 1.282500e-01 0.000000e+00
-3.024000e+00 1.282500e-01 0.000000e+00
-3.360000e+00 1.923750e-01 0.000000e+00
-3.276000e+00 1.923750e-01 0.000000e+00
-3.192000e+00 1.923750e-01 0.000000e+00
-3.108000e+00 1.923750e-01 0.000000e+00
-3.024000e+00 1.923750e-01 0.000000e+00
-3.360000e+00 2.565000e-01 0.000000e+00
-3.276000e+00 2.565000e-01 0.000000e+00
-3.192000e+00 2.565000e-01 0.000000e+00
-3.108000e+00 2.565000e-01 0.000000e+00
-3.024000e+00 2.565000e-01 0.000000e+00
-3.024000e+00 0.000000e+00 0.000000e+00
-2.940000e+00 0.000000e+00 0.000000e+00
-2.856000e+00 0.000000e+00 0.000000e+00
-2.772000e+00 0.000000e+00 0.000000e+00
-2.688000e+00 0.000000e+00 0.000000e+00
-3.024000e+00 6.412500e-02 0.000000e+00
-2.940000e+00 6.412500e-02 0.000000e+00
-2.856000e+00 6.412500e-02 0.000000e+00
-2.772000e+00 6.412500e-02 0.000000e+00
-2.688000e+00 6.412500e-02 0.000000e+00
-3.024000e+00 1.282500e-01 0.000000e+00
-2.940000e+00 1.282500e-01 0.000000e+00
-2.856000e+00 1.282500e-01 0.000000e+00
-2.772000e+00 1.282500e-01 0.000000e+00
-2.688000e+00 1.282500e-01 0.000000e+00
-3.024000e+00 1.923750e-01 0.000000e+00
-2.940000e+00 1.923750e-01 0.000000e+00
-2.856000e+00 1.923750e-01 0.000000e+00
-2.772000e+00 1.923750e-01 0.000000e+00
-2.688000e+00 1.923750e-01 0.000000e+00
-3.024000e+00 2.565000e-01 0.000000e+00
-2.940000e+00 2.565000e-01 0.000000e+00
-2.856000e+00 2.565000e-01 0.000000e+00
-2.772000e+00 2.565000e-01 0.000000e+00
-2.688000e+00 2.565000e-01 0.000000e+00
-2.688000e+00 0.000000e+00 0.000000e+00
-2.604000e+00 0.000000e+00 0.000000e+00
-2.520000e+00 0.000000e+00 0.000000e+00
-2.436000e+00 0.000000e+00 0.000000e+00
-2.352000e+00 0.000000e+00 0.000000e+00
-2.688000e+00 6.412500e-02 0.000000e+00
-2.604000e+00 6.412500e-02 0.000000e+00
-2.520000e+00 6.412500e-02 0.000000e+00
-2.436000e+00 6.412500e-02 0.000000e+00
-2.352000e+00 6.412500e-02 0.000000e+00
-2.688000e+00 1.282500e-01 0.000000e+00
-2.604000e+00 1.282500e-01 0.000000e+00
-2.520000e+00 1.282500e-01 0.000000e+00
-2.436000e+00 1.282500e-01 0.000000e+00
-2.352000e+00 1.282500e-01 0.000000e+00
-2.688000e+00 1.923750e-01 0.000000e+00
-2.604000e+00 1.923750e-01 0.000000e+00
-2.520000e+00 1.923750e-01 0.000000e+00
-2.436000e+00 1.923750e-01 0.000000e+00
-2.352000e+00 1.923750e-01 0.000000e+00
-2.688000e+00 2.565000e-01 0.000000e+00
-2.604000e+00 2.565000e-01 0.000000e+00
-2.520000e+00 2.565000e-01 0.000000e+00
-2.436000e+00 2.565000e-01 0.000000e+00
-2.352000e+00 2.565000e-01 0.000000e+00
-2.352000e+00 0.000000e+00 0.000000e+00
-2.268000e+00 0.000000e+00 0.000000e+00
-2.184000e+00 0.000000e+00 0.000000e+00
-2.100000e+00 0.000000e+00 0.000000e+00
-2.016000e+00 0.000000e+00 0.000000e+00
-2.352000e+00 6.412500e-02 0.000000e+00
-2.268000e+00 6.412500e-02 0.000000e+00
-2.184000e+00 6.412500e-02 0.000000e+00
-2.100000e+00 6.412500e-02 0.000000e+00
-2.016000e+00 6.412500e-02 0.000000e+00
-2.352000e+00 1.282500e-01 0.000000e+00
-2.268000e+00 1.282500e-01 0.000000e+00
-2.184000e+00 1.282500e-01 0.000000e+00
-2.100000e+00 1.282500e-01 0.000000e+00
-2.016000e+00 1.282500e-01 0.000000e+00
-2.352000e+00 1.923750e-01 0.000000e+00
-2.268000e+00 1.923750e-01 0.000000e+00
-2.184000e+00 1.923750e-01 0.000000e+00
-2.100000e+00 1.923750e-01 0.000000e+00
-2.016000e+00 1.923750e-01 0.000000e+00
-2.352000e+00 2.565000e-01 0.000000e+00
-2.268000e+00 2.565000e-01 0.000000e+00
-2.184000e+00 2.565000e-01 0.000000e+00
-2.100000e+00 2.565000e-01 0.000000e+00
-2.016000e+00 2.565000e-01 0.000000e+00
-2.016000e+00 0.000000e+00 0.000000e+00
-1.932000e+00 0.000000e+00 0.000000e+00
-1.848000e+00 0.000000e+00 0.000000e+00
-1.764000e+00 0.000000e+00 0.000000e+00
-1.680000e+00 0.000000e+00 0.000000e+00
-2.016000e+00 6.412500e-02 0.000000e+00
-1.932000e+00 6.412500e-02 0.000000e+00
-1.848000e+00 6.412500e-02 0.000000e+00
-1.764000e+00 6.412500e-02 0.000000e+00
-1.680000e+00 6.412500e-02 0.000000e+00
-2.016000e+00 1.282500e-01 0.000000e+00
-1.932000e+00 1.282500e-01 0.000000e+00
-1.848000e+00 1.282500e-01 0.000000e+00
-1.764000e+00 1.282500e-01 0.000000e+00
-1.680000e+00 1.282500e-01 0.000000e+00
-2.016000e+00 1.923750e-01 0.000000e+00
-1.932000e+00 1.923750e-01 0.000000e+00
-1.848000e+00 1.923750e-01 0.000000e+00
-1.764000e+00 1.923750e-01 0.000000e+00
-1.680000e+00 1.923750e-01 0.000000e+00
-2.016000e+00 2.565000e-01 0.000000e+00
-1.932000e+00 2.565000e-01 0.000000e+00
-1.848000e+00 2.565000e-01 0.000000e+00
-1.764000e+00 2.565000e-01 0.000000e+00
-1.680000e+00 2.565000e-01 0.000000e+00
-1.680000e+00 0.000000e+00 0.000000e+00
-1.596000e+00 0.000000e+00 0.000000e+00
-1.512000e+00 0.000000e+00 0.000000e+00
-1.428000e+00 0.000000e+00 0.000000e+00
-1.344000e+00 0.000000e+00 0.000000e+00
-1.680000e+00 6.412500e-02 0.000000e+00
-1.596000e+00 6.412500e-02 0.000000e+00
-1.512000e+00 6.412500e-02 0.000000e+00
-1.428000e+00 6.412500e-02 0.000000e+00
-1.344000e+00 6.412500e-02 0.000000e+00
-1.680000e+00 1.282500e-01 0.000000e+00
-1.596000e+00 1.282500e-01 0.000000e+00
-1.512000e+00 1.282500e-01 0.000000e+00
-1.428000e+00 1.282500e-01 0.000000e+00
-1.344000e+00 1.282500e-01 0.000000e+00
-1.680000e+00 1.923750e-01 0.000000e+00
-1.596000e+00 1.923750e-01 0.000000e+00
-1.512000e+00 1.923750e-01 0.000000e+00
-1.428000e+00 1.923750e-01 0.000000e+00
-1.344000e+00 1.923750e-01 0.000000e+00
-1.680000e+00 2.565000e-01 0.000000e+00
-1.596000e+00 2.565000e-01 0.000000e+00
-1.512000e+00 2.565000e-01 0.000000e+00
-1.428000e+00 2.565000e-01 0.000000e+00
-1.344000e+00 2.565000e-01 0.000000e+00
-1.344000e+00 0.000000e+00 0.000000e+00
-1.260000e+00 0.000000e+00 0.000000e+00
-1.176000e+00 0.000000e+00 0.000000e+00
-1.092000e+00 0.000000e+00 0.000000e+00
-1.008000e+00 0.000000e+00 0.000000e+00
-1.344000e+00 6.412500e-02 0.000000e+00
-1.260000e+00 6.412500e-02 0.000000e+00
-1.176000e+00 6.412500e-02 0.000000e+00
-1.092000e+00 6.412500e-02 0.000000e+00
-1.008000e+00 6.412500e-02 0.000000e+00
-1.344000e+00 1.282500e-01 0.000000e+00
-1.260000e+00 1.282500e-01 0.000000e+00
-1.176000e+00 1.282500e-01 0.000000e+00
-1.092000e+00 1.282500e-01 0.000000e+00
-1.008000e+00 1.282500e-01 0.000000e+00
-1.344000e+00 1.923750e-01 0.000000e+00
-1.260000e+00 1.923750e-01 0.000000e+00
-1.176000e+00 1.923750e-01 0.000000e+00
-1.092000e+00 1.923750e-01 0.000000e+00
-1.008000e+00 1.923750e-01 0.000000e+00
-1.344000e+00 2.565000e-01 0.000000e+00
-1.260000e+00 2.565000e-01 0.000000e+00
-1.176000e+00 2.565000e-01 0.000000e+00
-1.092000e+00 2.565000e-01 0.000000e+00
-1.008000e+00 2.565000e-01 0.000000e+00
-1.008000e+00 0.000000e+00 0.000000e+00
-9.240000e-01 0.000000e+00 0.000000e+00
-8.400000e-01 0.000000e+00 0.000000e+00
-7.560000e-01 0.000000e+00 0.000000e+00
-6.720000e-01 0.000000e+00 0.000000e+00
-1.008000e+00 6.412500e-02 0.000000e+00
-9.240000e-01 6.412500e-02 0.000000e+00
-8.400000e-01 6.412500e-02 0.000000e+00
-7.560000e-01 6.412500e-02 0.000000e+00
-6.720000e-01 6.412500e-02 0.000000e+00
-1.008000e+00 1.282500e-01 0.000000e+00
-9.240000e-01 1.282500e-01 0.000000e+00
-8.400000e-01 1.282500e-01 0.000000e+00
-7.560000e-01 1.282500e-01 0.000000e+00
-6.720000e-01 1.282500e-01 0.000000e+00
-1.008000e+00 1.923750e-01 0.000000e+00
-9.240000e-01 1.923750e-01 0.000000e+00
-8.400000e-01 1.923750e-01 0.000000e+00
-7.560000e-01 1.923750e-01 0.000000e+00
-6.720000e-01 1.923750e-01 0.000000e+00
-1.008000e+00 2.565000e-01 0.000000e+00
-9.240000e-01 2.565000e-01 0.000000e+00
-8.400000e-01 2.565000e-01 0.000000e+00
-7.560000e-01 2.565000e-01 0.000000e+00
-6.720000e-01 2.565000e-01 0.000000e+00
-6.720000e-01 0.000000e+00 0.000000e+00
-5.880000e-01 0.000000e+00 0.000000e+00
-5.040000e-01 0.000000e+00 0.000000e+00
-4.200000e-01 0.000000e+00 0.000000e+00
-3.360000e-01 0.000000e+00 0.000000e+00
-6.720000e-01 6.412500e-02 0.000000e+00
-5.880000e-01 6.412500e-02 0.000000e+00
-5.040000e-01 6.412500e-02 0.000000e+00
-4.200000e-01 6.412500e-02 0.000000e+00
-3.360000e-01 6.412500e-02 0.000000e+00
-6.720000e-01 1.282500e-01 0.000000e+00
-5.880000e-01 1.282500e-01 0.000000e+00
-5.040000e-01 1.282500e-01 0.000000e+00
-4.200000e-01 1.282500e-01 0.000000e+00
-3.360000e-01 1.282500e-01 0.000000e+00
-6.720000e-01 1.923750e-01 0.000000e+00
-5.880000e-01 1.923750e-01 0.000000e+00
-5.040000e-01 1.923750e-01 0.000000e+00
-4.200000e-01 1.923750e-01 0.000000e+00
-3.360000e-01 1.923750e-01 0.000000e+00
-6.720000e-01 2.565000e-01 0.000000e+00
-5.880000e-01 2.565000e-01 0.000000e+00
-5.040000e-01 2.565000e-01 0.000000e+00
-4.200000e-01 2.565000e-01 0.000000e+00
-3.360000e-01 2.565000e-01 0.000000e+00
-3.360000e-01 0.000000e+00 0.000000e+00
-2.520000e-01 0.000000e+00 0.000000e+00
-1.680000e-01 0.000000e+00 0.000000e+00
-8.400000e-02 0.000000e+00 0.000000e+00
-4.440890e-16 0.000000e+00 0.000000e+00
-3.360000e-01 6.412500e-02 0.000000e+00
-2.520000e-01 6.412500e-02 0.000000e+00
-1.680000e-01 6.412500e-02 0.000000e+00
-8.400000e-02 6.412500e-02 0.000000e+00
-4.440890e-16 6.412500e-02 0.000000e+00
-3.360000e-01 1.282500e-01 0.000000e+00
-2.520000e-01 1.282500e-01 0.000000e+00
-1.680000e-01 1.282500e-01 0.000000e+00
-8.400000e-02 1.282500e-01 0.000000e+00
-4.440890e-16 1.282500e-01 0.000000e+00
-3.360000e-01 1.923750e-01 0.000000e+00
-2.520000e-01 1.923750e-01 0.000000e+00
-1.680000e-01 1.923750e-01 0.000000e+00
[...]
<PointData>
<DataArray type="Float32" Name="V1" format="ascii">
0.000000e+00
0.000000e+00
0.000000e+00
0.000000e+00
0.000000e+00
6.347820e-02
5.973480e-02
5.552090e-02
5.083630e-02
4.568130e-02
1.013490e-01
9.789490e-02
9.319260e-02
8.724150e-02
8.004160e-02
1.136110e-01
1.144800e-01
1.130150e-01
1.092150e-01
1.030810e-01
1.002660e-01
1.094910e-01
1.149890e-01
1.167580e-01
1.148000e-01
0.000000e+00
0.000000e+00
0.000000e+00
0.000000e+00
0.000000e+00
4.568130e-02
3.992580e-02
3.544100e-02
3.222660e-02
3.028280e-02
8.004160e-02
7.166780e-02
6.493930e-02
5.985630e-02
5.641860e-02
1.030810e-01
9.522570e-02
8.849500e-02
8.288890e-02
7.840740e-02
1.148000e-01
1.106000e-01
1.061080e-01
1.013250e-01
9.624920e-02
0.000000e+00
0.000000e+00
0.000000e+00
0.000000e+00
0.000000e+00
3.028280e-02
2.849750e-02
2.698720e-02
2.575180e-02
2.479130e-02
5.641860e-02
5.333740e-02
5.076500e-02
4.870150e-02
4.714670e-02
7.840740e-02
7.451960e-02
7.133350e-02
6.884900e-02
6.706600e-02
9.624920e-02
9.204420e-02
8.869260e-02
8.619430e-02
8.454930e-02
0.000000e+00
0.000000e+00
0.000000e+00
0.000000e+00
0.000000e+00
2.479130e-02
2.400080e-02
2.352730e-02
2.337090e-02
2.353160e-02
4.714670e-02
4.590890e-02
4.519630e-02
4.500870e-02
4.534610e-02
6.706600e-02
6.572450e-02
6.500690e-02
6.491330e-02
6.544380e-02
8.454930e-02
8.344730e-02
8.295920e-02
8.308490e-02
8.382440e-02
0.000000e+00
0.000000e+00
0.000000e+00
0.000000e+00
0.000000e+00
2.353160e-02
2.381600e-02
2.426640e-02
2.488250e-02
2.566450e-02
4.534610e-02
4.592760e-02
4.681850e-02
4.801890e-02
4.952870e-02
6.544380e-02
6.633480e-02
6.765650e-02
6.940900e-02
7.159230e-02
8.382440e-02
8.503750e-02
8.678040e-02
8.905300e-02
9.185550e-02
0.000000e+00
0.000000e+00
0.000000e+00
0.000000e+00
0.000000e+00
2.566450e-02
2.659590e-02
2.776230e-02
2.916390e-02
3.080050e-02
4.952870e-02
5.131020e-02
5.350320e-02
5.610770e-02
5.912370e-02
7.159230e-02
7.414280e-02
7.722250e-02
8.083140e-02
8.496960e-02
9.185550e-02
9.509370e-02
9.892030e-02
1.033350e-01
1.083380e-01
0.000000e+00
0.000000e+00
0.000000e+00
0.000000e+00
0.000000e+00
3.080050e-02
3.263220e-02
3.480160e-02
3.730870e-02
4.015350e-02
5.912370e-02
6.248900e-02
6.643800e-02
7.097070e-02
7.608720e-02
8.496960e-02
8.957040e-02
9.490920e-02
1.009860e-01
1.078010e-01
1.083380e-01
1.138760e-01
1.202150e-01
1.273550e-01
1.352950e-01
0.000000e+00
0.000000e+00
0.000000e+00
0.000000e+00
0.000000e+00
4.015350e-02
4.323990e-02
4.686880e-02
5.104020e-02
5.575400e-02
7.608720e-02
8.162750e-02
8.808190e-02
9.545050e-02
1.037330e-01
1.078010e-01
1.151630e-01
1.236390e-01
1.332310e-01
1.439370e-01
1.352950e-01
1.438460e-01
1.535410e-01
1.643810e-01
1.763670e-01
0.000000e+00
0.000000e+00
0.000000e+00
0.000000e+00
0.000000e+00
5.575400e-02
6.071240e-02
6.651290e-02
7.315570e-02
8.064070e-02
1.037330e-01
1.124390e-01
1.225380e-01
1.340320e-01
1.469190e-01
1.439370e-01
1.551790e-01
1.680760e-01
1.826280e-01
1.988350e-01
1.763670e-01
1.889330e-01
2.031260e-01
2.189450e-01
2.363890e-01
0.000000e+00
0.000000e+00
0.000000e+00
0.000000e+00
0.000000e+00
8.064070e-02
8.834310e-02
9.710420e-02
1.069240e-01
1.178030e-01
1.469190e-01
1.602060e-01
1.752190e-01
1.919580e-01
2.104220e-01
1.988350e-01
2.155900e-01
2.343450e-01
2.551010e-01
2.778560e-01
2.363890e-01
2.544940e-01
2.744820e-01
2.963530e-01
3.201070e-01
0.000000e+00
0.000000e+00
0.000000e+00
0.000000e+00
0.000000e+00
1.178030e-01
1.293900e-01
1.414250e-01
1.539080e-01
1.668380e-01
2.104220e-01
2.301820e-01
2.507050e-01
2.719880e-01
2.940330e-01
2.778560e-01
3.023760e-01
3.278380e-01
3.542400e-01
3.815840e-01
3.201070e-01
3.459720e-01
3.728250e-01
4.006650e-01
4.294930e-01
0.000000e+00
0.000000e+00
0.000000e+00
0.000000e+00
0.000000e+00
1.668380e-01
1.819520e-01
1.953060e-01
2.068990e-01
2.167320e-01
2.940330e-01
3.198780e-01
3.431210e-01
3.637620e-01
3.818010e-01
3.815840e-01
4.137770e-01
4.434450e-01
4.705880e-01
4.952070e-01
4.294930e-01
4.636500e-01
4.962780e-01
5.273780e-01
5.569500e-01
0.000000e+00
0.000000e+00
0.000000e+00
0.000000e+00
0.000000e+00
2.167320e-01
2.275780e-01
2.341770e-01
2.365280e-01
2.346320e-01
3.818010e-01
4.018640e-01
4.154230e-01
4.224770e-01
4.230260e-01
4.952070e-01
5.228570e-01
5.437360e-01
5.578450e-01
5.651830e-01
5.569500e-01
5.905570e-01
6.191190e-01
6.426340e-01
6.611030e-01
0.000000e+00
0.000000e+00
0.000000e+00
0.000000e+00
0.000000e+00
2.346320e-01
2.252660e-01
2.124540e-01
1.961980e-01
1.764960e-01
4.230260e-01
4.117120e-01
3.941610e-01
3.703730e-01
3.403480e-01
5.651830e-01
5.593390e-01
5.451200e-01
5.225250e-01
4.915550e-01
6.611030e-01
6.681470e-01
6.653310e-01
6.526540e-01
6.301170e-01
0.000000e+00
0.000000e+00
0.000000e+00
0.000000e+00
0.000000e+00
1.764960e-01
1.490150e-01
1.239810e-01
1.013930e-01
8.125180e-02
3.403480e-01
2.950550e-01
2.517990e-01
2.105810e-01
1.713990e-01
4.915550e-01
4.381180e-01
3.834540e-01
3.275620e-01
2.704420e-01
6.301170e-01
5.782060e-01
5.189470e-01
4.523380e-01
3.783810e-01
0.000000e+00
0.000000e+00
0.000000e+00
0.000000e+00
0.000000e+00
8.125180e-02
6.554640e-02
5.133380e-02
3.861400e-02
2.738710e-02
1.713990e-01
1.388360e-01
1.092740e-01
8.271070e-02
5.914800e-02
2.704420e-01
2.198700e-01
1.738190e-01
1.322900e-01
9.528270e-02
3.783810e-01
3.086470e-01
2.449710e-01
1.873520e-01
1.357910e-01
0.000000e+00
0.000000e+00
0.000000e+00
0.000000e+00
0.000000e+00
2.738710e-02
1.973290e-02
1.255230e-02
5.845250e-03
-3.881460e-04
5.914800e-02
4.313140e-02
2.873740e-02
1.596600e-02
4.817290e-03
9.528270e-02
7.019560e-02
4.855550e-02
3.036240e-02
1.561630e-02
1.357910e-01
1.009250e-01
7.200640e-02
4.903420e-02
3.200890e-02
0.000000e+00
0.000000e+00
0.000000e+00
0.000000e+00
0.000000e+00
-3.881460e-04
-4.333400e-03
-6.690510e-03
-7.459470e-03
-6.640290e-03
4.817290e-03
-2.213250e-03
-6.345530e-03
-7.579530e-03
-5.915270e-03
1.561630e-02
6.360440e-03
1.034950e-03
-3.601790e-04
2.175060e-03
3.200890e-02
2.138770e-02
1.545090e-02
1.419860e-02
1.763070e-02
0.000000e+00
0.000000e+00
0.000000e+00
0.000000e+00
0.000000e+00
-6.640290e-03
-6.544700e-03
-6.140310e-03
-5.427120e-03
-4.405130e-03
-5.915270e-03
-5.514970e-03
-4.706740e-03
-3.490580e-03
-1.866480e-03
2.175060e-03
3.089180e-03
4.300710e-03
5.809640e-03
7.615960e-03
1.763070e-02
1.926780e-02
2.088200e-02
2.247350e-02
2.404220e-02
0.000000e+00
0.000000e+00
0.000000e+00
0.000000e+00
0.000000e+00
-4.405130e-03
-3.653230e-03
-4.125180e-03
-5.820980e-03
-8.740620e-03
-1.866480e-03
-9.030690e-04
-1.714950e-03
-4.302110e-03
-8.664570e-03
7.615960e-03
8.250480e-03
7.230690e-03
4.556580e-03
2.281690e-04
2.404220e-02
2.380740e-02
2.271170e-02
2.075510e-02
1.793760e-02
1.002660e-01
1.094910e-01
1.149890e-01
1.167580e-01
1.148000e-01
9.945850e-02
1.078960e-01
1.139690e-01
1.176780e-01
1.190230e-01
9.848610e-02
1.059570e-01
1.121280e-01
1.169970e-01
1.205660e-01
9.734850e-02
1.036760e-01
1.094660e-01
1.147170e-01
1.194300e-01
9.604590e-02
1.010520e-01
1.059820e-01
1.108370e-01
1.156150e-01
1.148000e-01
1.106000e-01
1.061080e-01
1.013250e-01
9.624920e-02
1.190230e-01
1.177560e-01
1.155820e-01
1.125010e-01
1.085120e-01
1.205660e-01
1.215870e-01
1.213210e-01
1.197700e-01
1.169320e-01
1.194300e-01
1.220920e-01
1.233260e-01
1.231320e-01
1.215110e-01
1.156150e-01
1.192710e-01
1.215950e-01
1.225870e-01
1.222470e-01
9.624920e-02
9.204420e-02
8.869260e-02
8.619430e-02
8.454930e-02
1.085120e-01
1.048040e-01
1.018320e-01
9.959550e-02
9.809470e-02
1.169320e-01
1.139140e-01
1.114760e-01
1.096180e-01
1.083400e-01
1.215110e-01
1.193730e-01
1.176240e-01
1.162610e-01
1.152860e-01
1.222470e-01
1.211830e-01
1.202760e-01
1.195260e-01
1.189330e-01
8.454930e-02
8.344730e-02
8.295920e-02
8.308490e-02
8.382440e-02
9.809470e-02
9.720400e-02
9.692860e-02
9.726850e-02
9.822360e-02
1.083400e-01
1.076860e-01
1.076240e-01
1.081560e-01
1.092800e-01
1.152860e-01
1.148930e-01
1.150460e-01
1.157460e-01
1.169930e-01
1.189330e-01
1.188250e-01
1.191940e-01
1.200400e-01
1.213630e-01
8.382440e-02
8.503750e-02
8.678040e-02
8.905300e-02
9.185550e-02
9.822360e-02
9.966310e-02
1.016690e-01
1.042410e-01
1.073800e-01
1.092800e-01
1.108840e-01
1.130650e-01
1.158230e-01
1.191580e-01
1.169930e-01
1.186990e-01
1.209680e-01
1.237990e-01
1.271910e-01
1.213630e-01
1.231100e-01
1.253780e-01
1.281680e-01
1.314790e-01
9.185550e-02
9.509370e-02
9.892030e-02
1.033350e-01
1.083380e-01
1.073800e-01
1.109830e-01
1.151920e-01
1.200060e-01
1.254270e-01
1.191580e-01
1.229660e-01
1.273790e-01
1.323960e-01
1.380180e-01
1.271910e-01
1.310450e-01
1.354820e-01
1.405030e-01
1.461090e-01
1.314790e-01
1.352180e-01
1.395010e-01
1.443290e-01
1.497020e-01
1.083380e-01
1.138760e-01
1.202150e-01
1.273550e-01
1.352950e-01
1.254270e-01
1.313710e-01
1.381160e-01
1.456620e-01
1.540080e-01
1.380180e-01
1.441370e-01
1.510390e-01
1.587220e-01
1.671880e-01
1.461090e-01
1.521740e-01
1.589830e-01
1.665370e-01
1.748350e-01
1.497020e-01
1.554810e-01
1.619490e-01
1.691050e-01
1.769500e-01
1.352950e-01
1.438460e-01
1.535410e-01
1.643810e-01
1.763670e-01
1.540080e-01
1.629090e-01
1.729340e-01
1.840820e-01
1.963550e-01
1.671880e-01
1.761470e-01
1.861950e-01
1.973310e-01
2.095560e-01
1.748350e-01
1.835590e-01
1.933230e-01
2.041260e-01
2.159690e-01
1.769500e-01
1.851460e-01
1.943190e-01
2.044690e-01
2.155960e-01
1.763670e-01
1.889330e-01
2.031260e-01
2.189450e-01
2.363890e-01
1.963550e-01
2.090750e-01
2.234050e-01
2.393470e-01
2.568980e-01
2.095560e-01
2.221030e-01
2.362430e-01
2.519770e-01
2.693040e-01
2.159690e-01
2.280170e-01
2.416390e-01
2.568350e-01
2.736050e-01
2.155960e-01
2.268180e-01
2.395930e-01
2.539210e-01
2.698030e-01
2.363890e-01
2.544940e-01
2.744820e-01
2.963530e-01
3.201070e-01
2.568980e-01
2.749020e-01
2.948650e-01
3.167890e-01
3.406740e-01
2.693040e-01
2.868640e-01
3.064820e-01
3.281580e-01
3.518920e-01
2.736050e-01
2.903810e-01
3.093330e-01
3.304600e-01
3.537630e-01
2.698030e-01
2.854530e-01
3.034160e-01
3.236940e-01
3.462860e-01
3.201070e-01
3.459720e-01
3.728250e-01
4.006650e-01
4.294930e-01
3.406740e-01
3.665240e-01
3.936290e-01
4.219920e-01
4.516100e-01
3.518920e-01
3.773900e-01
4.044310e-01
4.330150e-01
4.631440e-01
3.537630e-01
3.785710e-01
4.052280e-01
4.337360e-01
4.640940e-01
3.462860e-01
3.700670e-01
3.960230e-01
4.241540e-01
4.544620e-01
4.294930e-01
4.636500e-01
4.962780e-01
5.273780e-01
5.569500e-01
4.516100e-01
4.870850e-01
5.214310e-01
5.546470e-01
5.867350e-01
4.631440e-01
4.996680e-01
5.354190e-01
5.703970e-01
6.046020e-01
4.640940e-01
5.013970e-01
5.382410e-01
5.746260e-01
6.105510e-01
4.544620e-01
4.922740e-01
5.298990e-01
5.673340e-01
6.045820e-01
5.569500e-01
5.905570e-01
6.191190e-01
6.426340e-01
6.611030e-01
5.867350e-01
6.250000e-01
6.586360e-01
6.876400e-01
7.120140e-01
6.046020e-01
6.471490e-01
6.853260e-01
7.191310e-01
7.485660e-01
6.105510e-01
6.570040e-01
6.991900e-01
7.371080e-01
7.707590e-01
6.045820e-01
6.545640e-01
7.002270e-01
7.415700e-01
7.785940e-01
6.611030e-01
6.681470e-01
6.653310e-01
6.526540e-01
6.301170e-01
7.120140e-01
7.283860e-01
7.356930e-01
7.339350e-01
7.231120e-01
7.485660e-01
7.724740e-01
7.880460e-01
7.952820e-01
7.941800e-01
7.707590e-01
8.004130e-01
8.223910e-01
8.366940e-01
8.433210e-01
7.785940e-01
8.122020e-01
8.387290e-01
8.581730e-01
8.705340e-01
6.301170e-01
5.782060e-01
5.189470e-01
4.523380e-01
3.783810e-01
7.231120e-01
6.833910e-01
6.320540e-01
5.691000e-01
4.945300e-01
7.941800e-01
7.648600e-01
7.219330e-01
6.653980e-01
5.952560e-01
8.433210e-01
8.226130e-01
7.885840e-01
7.412310e-01
6.805570e-01
8.705340e-01
8.566510e-01
8.320060e-01
7.966000e-01
7.504330e-01
3.783810e-01
3.086470e-01
2.449710e-01
1.873520e-01
1.357910e-01
4.945300e-01
4.094630e-01
3.296900e-01
2.552100e-01
1.860240e-01
5.952560e-01
5.028290e-01
4.129800e-01
3.257080e-01
2.410130e-01
6.805570e-01
5.887460e-01
4.948420e-01
3.988460e-01
3.007580e-01
7.504330e-01
6.672120e-01
5.752760e-01
4.746240e-01
3.652580e-01
1.357910e-01
1.009250e-01
7.200640e-02
4.903420e-02
3.200890e-02
1.860240e-01
1.416710e-01
1.049760e-01
7.593890e-02
5.455930e-02
2.410130e-01
1.869580e-01
1.420680e-01
1.063430e-01
7.978320e-02
3.007580e-01
2.367850e-01
1.832810e-01
1.402460e-01
1.076810e-01
3.652580e-01
2.911520e-01
2.286160e-01
1.776490e-01
1.382520e-01
3.200890e-02
2.138770e-02
1.545090e-02
1.419860e-02
1.763070e-02
5.455930e-02
4.074940e-02
3.285740e-02
3.088320e-02
3.482690e-02
7.978320e-02
6.184690e-02
5.117110e-02
4.775600e-02
5.160140e-02
1.076810e-01
8.468010e-02
7.039220e-02
6.481690e-02
6.795420e-02
1.382520e-01
1.092490e-01
9.052050e-02
8.206600e-02
8.388540e-02
1.763070e-02
1.926780e-02
2.088200e-02
2.247350e-02
2.404220e-02
3.482690e-02
3.677730e-02
3.846560e-02
3.989180e-02
4.105590e-02
5.160140e-02
5.360220e-02
5.518220e-02
5.634140e-02
5.707970e-02
6.795420e-02
6.974270e-02
7.103200e-02
7.182240e-02
7.211370e-02
8.388540e-02
8.519850e-02
8.601500e-02
8.633470e-02
8.615780e-02
2.404220e-02
2.380740e-02
2.271170e-02
2.075510e-02
1.793760e-02
4.105590e-02
4.057720e-02
3.925710e-02
3.709560e-02
3.409260e-02
5.707970e-02
5.624790e-02
5.463110e-02
5.222930e-02
4.904270e-02
7.211370e-02
7.081940e-02
6.883360e-02
6.615640e-02
6.278770e-02
8.615780e-02
8.429170e-02
8.186470e-02
7.887670e-02
7.532770e-02
9.604590e-02
1.010520e-01
1.059820e-01
1.108370e-01
1.156150e-01
9.458900e-02
9.908160e-02
1.035570e-01
1.080160e-01
1.124580e-01
9.299440e-02
9.710750e-02
1.011910e-01
1.052440e-01
1.092670e-01
9.126190e-02
9.512970e-02
9.888270e-02
1.025210e-01
1.060440e-01
8.939170e-02
9.314830e-02
9.663330e-02
9.984660e-02
1.027880e-01
1.156150e-01
1.192710e-01
1.215950e-01
1.225870e-01
1.222470e-01
1.124580e-01
1.161640e-01
1.188000e-01
1.203650e-01
1.208600e-01
1.092670e-01
1.128390e-01
1.155850e-01
1.175050e-01
1.186000e-01
1.060440e-01
1.092970e-01
1.119510e-01
1.140080e-01
1.154660e-01
1.027880e-01
1.055370e-01
1.078990e-01
1.098730e-01
1.114600e-01
1.222470e-01
1.211830e-01
1.202760e-01
1.195260e-01
1.189330e-01
1.208600e-01
1.206000e-01
1.203750e-01
1.201840e-01
1.200280e-01
1.186000e-01
1.189730e-01
1.193010e-01
1.195830e-01
1.198190e-01
1.154660e-01
1.163020e-01
1.170530e-01
1.177200e-01
1.183030e-01
1.114600e-01
1.125850e-01
1.136310e-01
1.145970e-01
1.154820e-01
1.189330e-01
1.188250e-01
1.191940e-01
1.200400e-01
1.213630e-01
1.200280e-01
1.202270e-01
1.208260e-01
1.218230e-01
1.232210e-01
1.198190e-01
1.203040e-01
1.211170e-01
1.222580e-01
1.237270e-01
1.183030e-01
1.190540e-01
1.200670e-01
1.213430e-01
1.228820e-01
1.154820e-01
1.164780e-01
1.176770e-01
1.190800e-01
1.206870e-01
1.213630e-01
1.231100e-01
1.253780e-01
1.281680e-01
1.314790e-01
1.232210e-01
1.249980e-01
1.272540e-01
1.299880e-01
1.332000e-01
1.237270e-01
1.255330e-01
1.277740e-01
1.304490e-01
1.335580e-01
1.228820e-01
1.247150e-01
1.269370e-01
1.295490e-01
1.325520e-01
1.206870e-01
1.225420e-01
1.247430e-01
1.272900e-01
1.301810e-01
1.314790e-01
1.352180e-01
1.395010e-01
1.443290e-01
1.497020e-01
1.332000e-01
1.368020e-01
1.409180e-01
1.455470e-01
1.506890e-01
1.335580e-01
1.370190e-01
1.409620e-01
1.453880e-01
1.502960e-01
1.325520e-01
1.358670e-01
1.396340e-01
1.438530e-01
1.485230e-01
1.301810e-01
1.333470e-01
1.369330e-01
1.409410e-01
1.453710e-01
1.497020e-01
1.554810e-01
1.619490e-01
1.691050e-01
1.769500e-01
1.506890e-01
1.561920e-01
1.623510e-01
1.691640e-01
1.766330e-01
1.502960e-01
1.555220e-01
1.613700e-01
1.678410e-01
1.749340e-01
1.485230e-01
1.534700e-01
1.590060e-01
1.651330e-01
1.718510e-01
1.453710e-01
1.500360e-01
1.552600e-01
1.610430e-01
1.673850e-01
1.769500e-01
1.851460e-01
1.943190e-01
2.044690e-01
2.155960e-01
1.766330e-01
1.843950e-01
1.931080e-01
2.027700e-01
2.133820e-01
1.749340e-01
1.822640e-01
1.905140e-01
1.996820e-01
2.097710e-01
1.718510e-01
1.787520e-01
1.865370e-01
1.952080e-01
2.047630e-01
1.673850e-01
1.738580e-01
1.811780e-01
1.893450e-01
1.983590e-01
2.155960e-01
2.268180e-01
2.395930e-01
2.539210e-01
2.698030e-01
2.133820e-01
2.239980e-01
2.361860e-01
2.499450e-01
2.652770e-01
2.097710e-01
2.197750e-01
2.313500e-01
2.444940e-01
2.592080e-01
2.047630e-01
2.141510e-01
2.250850e-01
2.375670e-01
2.515950e-01
1.983590e-01
2.071240e-01
2.173920e-01
2.291650e-01
2.424400e-01
2.698030e-01
2.854530e-01
3.034160e-01
3.236940e-01
3.462860e-01
2.652770e-01
2.800930e-01
2.974130e-01
3.172380e-01
3.395670e-01
2.592080e-01
2.731100e-01
2.896790e-01
3.089130e-01
3.308140e-01
2.515950e-01
2.645030e-01
2.802120e-01
2.987200e-01
3.200290e-01
2.424400e-01
2.542740e-01
2.690130e-01
2.866590e-01
3.072100e-01
3.462860e-01
3.700670e-01
3.960230e-01
4.241540e-01
4.544620e-01
3.395670e-01
3.625180e-01
3.880520e-01
4.161690e-01
4.468690e-01
3.308140e-01
3.526270e-01
3.774400e-01
4.052550e-01
4.360690e-01
3.200290e-01
3.403940e-01
3.641880e-01
3.914110e-01
4.220640e-01
3.072100e-01
3.258180e-01
3.482940e-01
3.746390e-01
4.048520e-01
4.544620e-01
4.922740e-01
5.298990e-01
5.673340e-01
6.045820e-01
4.468690e-01
4.854220e-01
5.240330e-01
5.627010e-01
6.014250e-01
4.360690e-01
4.749450e-01
5.139990e-01
5.532320e-01
5.926420e-01
4.220640e-01
4.608430e-01
4.997980e-01
5.389270e-01
5.782330e-01
4.048520e-01
4.431160e-01
4.814280e-01
5.197880e-01
5.581960e-01
6.045820e-01
6.545640e-01
7.002270e-01
7.415700e-01
7.785940e-01
6.014250e-01
6.554410e-01
7.046980e-01
7.491940e-01
7.889300e-01
5.926420e-01
6.502080e-01
7.025060e-01
7.495340e-01
7.912940e-01
5.782330e-01
6.388650e-01
6.936510e-01
7.425930e-01
7.856880e-01
5.581960e-01
6.214110e-01
6.781350e-01
7.283680e-01
7.721100e-01
7.785940e-01
8.122020e-01
8.387290e-01
8.581730e-01
8.705340e-01
7.889300e-01
8.264700e-01
8.565750e-01
8.792440e-01
8.944770e-01
7.912940e-01
8.323890e-01
8.657340e-01
8.913280e-01
9.091710e-01
7.856880e-01
8.299590e-01
8.662040e-01
8.944230e-01
9.146160e-01
7.721100e-01
8.191800e-01
8.579870e-01
8.885300e-01
9.108110e-01
8.705340e-01
8.566510e-01
8.320060e-01
7.966000e-01
7.504330e-01
8.944770e-01
8.817370e-01
8.606000e-01
8.310640e-01
7.931300e-01
9.091710e-01
8.970120e-01
8.784250e-01
8.534100e-01
8.219680e-01
9.146160e-01
9.024740e-01
8.854820e-01
8.636400e-01
8.369470e-01
9.108110e-01
8.981240e-01
8.817710e-01
8.617520e-01
8.380670e-01
7.504330e-01
6.672120e-01
5.752760e-01
4.746240e-01
3.652580e-01
7.931300e-01
7.202550e-01
6.347650e-01
5.366580e-01
4.259360e-01
8.219680e-01
7.579840e-01
6.792510e-01
5.857700e-01
4.775420e-01
8.369470e-01
7.803970e-01
7.087350e-01
6.219600e-01
5.200740e-01
8.380670e-01
7.874950e-01
7.232160e-01
6.452280e-01
5.535330e-01
3.652580e-01
2.911520e-01
2.286160e-01
1.776490e-01
1.382520e-01
4.259360e-01
3.442050e-01
2.740760e-01
2.155510e-01
1.686280e-01
4.775420e-01
3.917080e-01
3.165410e-01
2.520420e-01
1.982090e-01
5.200740e-01
4.336620e-01
3.560120e-01
2.871220e-01
2.269930e-01
5.535330e-01
4.700670e-01
3.924870e-01
3.207910e-01
2.549800e-01
1.382520e-01
1.092490e-01
9.052050e-02
8.206600e-02
8.388540e-02
1.686280e-01
1.340940e-01
1.108740e-01
9.896710e-02
9.837360e-02
1.982090e-01
1.589000e-01
1.315970e-01
1.162970e-01
1.130020e-01
2.269930e-01
1.836670e-01
1.526880e-01
1.340560e-01
1.277710e-01
2.549800e-01
2.083940e-01
1.741490e-01
1.522440e-01
1.426810e-01
8.388540e-02
8.519850e-02
8.601500e-02
8.633470e-02
8.615780e-02
9.837360e-02
9.888180e-02
9.899080e-02
9.870070e-02
9.801130e-02
1.130020e-01
1.122130e-01
1.112300e-01
1.100530e-01
1.086820e-01
1.277710e-01
1.251920e-01
1.227310e-01
1.203910e-01
1.181690e-01
1.426810e-01
1.378180e-01
1.334960e-01
1.297150e-01
1.264740e-01
8.615780e-02
8.429170e-02
8.186470e-02
7.887670e-02
7.532770e-02
9.801130e-02
9.549420e-02
9.260010e-02
8.932920e-02
8.568130e-02
1.086820e-01
1.054280e-01
1.020090e-01
9.842360e-02
9.467280e-02
1.181690e-01
1.140940e-01
1.100900e-01
1.061600e-01
1.023020e-01
1.264740e-01
1.214900e-01
1.168450e-01
1.125380e-01
1.085700e-01
8.939170e-02
9.314830e-02
9.663330e-02
9.984660e-02
1.027880e-01
8.740010e-02
9.089170e-02
9.408590e-02
9.698260e-02
9.958180e-02
8.530680e-02
8.853060e-02
9.144390e-02
9.404690e-02
9.633940e-02
8.311190e-02
8.606500e-02
8.870750e-02
9.103950e-02
9.306100e-02
8.081530e-02
8.349490e-02
8.587660e-02
8.796050e-02
8.974660e-02
1.027880e-01
1.055370e-01
1.078990e-01
1.098730e-01
1.114600e-01
9.958180e-02