<?xml version="1.0"?>
<VTKFile type="UnstructuredGrid" version="0.1" byte_order="LittleEndian" compressor="vtkZLibDataCompressor">
<UnstructuredGrid>
<Piece NumberOfPoints="10000" NumberOfCells="6400">
<Points>
<DataArray type="Float32" NumberOfComponents="3" format="ascii">
-3.360000e+00 0.000000e+00 0.000000e+00
-3.276000e+00 0.000000e+00 0.000000e+00
-3.192000e+00 0.000000e+00 0.000000e+00
-3.108000e+00 0.000000e+00 0.000000e+00
-3.024000e+00 0.000000e+00 0.000000e+00
-3.360000e+00 6.412500e-02 0.000000e+00
-3.276000e+00 6.412500e-02 0.000000e+00
-3.192000e+00 6.412500e-02 0.000000e+00
-3.108000e+00 6.412500e-02 0.000000e+00
-3.024000e+00 6.412500e-02 0.000000e+00
-3.360000e+00 1.282500e-01 0.000000e+00
-3.276000e+00 1.282500e-01 0.000000e+00
-3.192000e+00 1.282500e-01 0.000000e+00
-3.108000e+00 1.282500e-01 0.000000e+00
-3.024000e+00 1.282500e-01 0.000000e+00
-3.360000e+00 1.923750e-01 0.000000e+00
-3.276000e+00 1.923750e-01 0.000000e+00
-3.192000e+00 1.923750e-01 0.000000e+00
-3.108000e+00 1.923750e-01 0.000000e+00
-3.024000e+00 1.923750e-01 0.000000e+00
-3.360000e+00 2.565000e-01 0.000000e+00
-3.276000e+00 2.565000e-01 0.000000e+00
-3.192000e+00 2.565000e-01 0.000000e+00
-3.108000e+00 2.565000e-01 0.000000e+00
-3.024000e+00 2.565000e-01 0.000000e+00
-3.024000e+00 0.000000e+00 0.000000e+00
-2.940000e+00 0.000000e+00 0.000000e+00
-2.856000e+00 0.000000e+00 0.000000e+00
-2.772000e+00 0.000000e+00 0.000000e+00
-2.688000e+00 0.000000e+00 0.000000e+00
-3.024000e+00 6.412500e-02 0.000000e+00
-2.940000e+00 6.412500e-02 0.000000e+00
-2.856000e+00 6.412500e-02 0.000000e+00
-2.772000e+00 6.412500e-02 0.000000e+00
-2.688000e+00 6.412500e-02 0.000000e+00
-3.024000e+00 1.282500e-01 0.000000e+00
-2.940000e+00 1.282500e-01 0.000000e+00
-2.856000e+00 1.282500e-01 0.000000e+00
-2.772000e+00 1.282500e-01 0.000000e+00
-2.688000e+00 1.282500e-01 0.000000e+00
-3.024000e+00 1.923750e-01 0.000000e+00
-2.940000e+00 1.923750e-01 0.000000e+00
-2.856000e+00 1.923750e-01 0.000000e+00
-2.772000e+00 1.923750e-01 0.000000e+00
-2.688000e+00 1.923750e-01 0.000000e+00
-3.024000e+00 2.565000e-01 0.000000e+00
-2.940000e+00 2.565000e-01 0.000000e+00
-2.856000e+00 2.565000e-01 0.000000e+00
-2.772000e+00 2.565000e-01 0.000000e+00
-2.688000e+00 2.565000e-01 0.000000e+00
-2.688000e+00 0.000000e+00 0.000000e+00
-2.604000e+00 0.000000e+00 0.000000e+00
-2.520000e+00 0.000000e+00 0.000000e+00
-2.436000e+00 0.000000e+00 0.000000e+00
-2.352000e+00 0.000000e+00 0.000000e+00
-2.688000e+00 6.412500e-02 0.000000e+00
-2.604000e+00 6.412500e-02 0.000000e+00
-2.520000e+00 6.412500e-02 0.000000e+00
-2.436000e+00 6.412500e-02 0.000000e+00
-2.352000e+00 6.412500e-02 0.000000e+00
-2.688000e+00 1.282500e-01 0.000000e+00
-2.604000e+00 1.282500e-01 0.000000e+00
-2.520000e+00 1.282500e-01 0.000000e+00
-2.436000e+00 1.282500e-01 0.000000e+00
-2.352000e+00 1.282500e-01 0.000000e+00
-2.688000e+00 1.923750e-01 0.000000e+00
-2.604000e+00 1.923750e-01 0.000000e+00
-2.520000e+00 1.923750e-01 0.000000e+00
-2.436000e+00 1.923750e-01 0.000000e+00
-2.352000e+00 1.923750e-01 0.000000e+00
-2.688000e+00 2.565000e-01 0.000000e+00
-2.604000e+00 2.565000e-01 0.000000e+00
-2.520000e+00 2.565000e-01 0.000000e+00
-2.436000e+00 2.565000e-01 0.000000e+00
-2.352000e+00 2.565000e-01 0.000000e+00
-2.352000e+00 0.000000e+00 0.000000e+00
-2.268000e+00 0.000000e+00 0.000000e+00
-2.184000e+00 0.000000e+00 0.000000e+00
-2.100000e+00 0.000000e+00 0.000000e+00
-2.016000e+00 0.000000e+00 0.000000e+00
-2.352000e+00 6.412500e-02 0.000000e+00
-2.268000e+00 6.412500e-02 0.000000e+00
-2.184000e+00 6.412500e-02 0.000000e+00
-2.100000e+00 6.412500e-02 0.000000e+00
-2.016000e+00 6.412500e-02 0.000000e+00
-2.352000e+00 1.282500e-01 0.000000e+00
-2.268000e+00 1.282500e-01 0.000000e+00
-2.184000e+00 1.282500e-01 0.000000e+00
-2.100000e+00 1.282500e-01 0.000000e+00
-2.016000e+00 1.282500e-01 0.000000e+00
-2.352000e+00 1.923750e-01 0.000000e+00
-2.268000e+00 1.923750e-01 0.000000e+00
-2.184000e+00 1.923750e-01 0.000000e+00
-2.100000e+00 1.923750e-01 0.000000e+00
-2.016000e+00 1.923750e-01 0.000000e+00
-2.352000e+00 2.565000e-01 0.000000e+00
-2.268000e+00 2.565000e-01 0.000000e+00
-2.184000e+00 2.565000e-01 0.000000e+00
-2.100000e+00 2.565000e-01 0.000000e+00
-2.016000e+00 2.565000e-01 0.000000e+00
-2.016000e+00 0.000000e+00 0.000000e+00
-1.932000e+00 0.000000e+00 0.000000e+00
-1.848000e+00 0.000000e+00 0.000000e+00
-1.764000e+00 0.000000e+00 0.000000e+00
-1.680000e+00 0.000000e+00 0.000000e+00
-2.016000e+00 6.412500e-02 0.000000e+00
-1.932000e+00 6.412500e-02 0.000000e+00
-1.848000e+00 6.412500e-02 0.000000e+00
-1.764000e+00 6.412500e-02 0.000000e+00
-1.680000e+00 6.412500e-02 0.000000e+00
-2.016000e+00 1.282500e-01 0.000000e+00
-1.932000e+00 1.282500e-01 0.000000e+00
-1.848000e+00 1.282500e-01 0.000000e+00
-1.764000e+00 1.282500e-01 0.000000e+00
-1.680000e+00 1.282500e-01 0.000000e+00
-2.016000e+00 1.923750e-01 0.000000e+00
-1.932000e+00 1.923750e-01 0.000000e+00
-1.848000e+00 1.923750e-01 0.000000e+00
-1.764000e+00 1.923750e-01 0.000000e+00
-1.680000e+00 1.923750e-01 0.000000e+00
-2.016000e+00 2.565000e-01 0.000000e+00
-1.932000e+00 2.565000e-01 0.000000e+00
-1.848000e+00 2.565000e-01 0.000000e+00
-1.764000e+00 2.565000e-01 0.000000e+00
-1.680000e+00 2.565000e-01 0.000000e+00
-1.680000e+00 0.000000e+00 0.000000e+00
-1.596000e+00 0.000000e+00 0.000000e+00
-1.512000e+00 0.000000e+00 0.000000e+00
-1.428000e+00 0.000000e+00 0.000000e+00
-1.344000e+00 0.000000e+00 0.000000e+00
-1.680000e+00 6.412500e-02 0.000000e+00
-1.596000e+00 6.412500e-02 0.000000e+00
-1.512000e+00 6.412500e-02 0.000000e+00
-1.428000e+00 6.412500e-02 0.000000e+00
-1.344000e+00 6.412500e-02 0.000000e+00
-1.680000e+00 1.282500e-01 0.000000e+00
-1.596000e+00 1.282500e-01 0.000000e+00
-1.512000e+00 1.282500e-01 0.000000e+00
-1.428000e+00 1.282500e-01 0.000000e+00
-1.344000e+00 1.282500e-01 0.000000e+00
-1.680000e+00 1.923750e-01 0.000000e+00
-1.596000e+00 1.923750e-01 0.000000e+00
-1.512000e+00 1.923750e-01 0.000000e+00
-1.428000e+00 1.923750e-01 0.000000e+00
-1.344000e+00 1.923750e-01 0.000000e+00
-1.680000e+00 2.565000e-01 0.000000e+00
-1.596000e+00 2.565000e-01 0.000000e+00
-1.512000e+00 2.565000e-01 0.000000e+00
-1.428000e+00 2.565000e-01 0.000000e+00
-1.344000e+00 2.565000e-01 0.000000e+00
-1.344000e+00 0.000000e+00 0.000000e+00
-1.260000e+00 0.000000e+00 0.000000e+00
-1.176000e+00 0.000000e+00 0.000000e+00
-1.092000e+00 0.000000e+00 0.000000e+00
-1.008000e+00 0.000000e+00 0.000000e+00
-1.344000e+00 6.412500e-02 0.000000e+00
-1.260000e+00 6.412500e-02 0.000000e+00
-1.176000e+00 6.412500e-02 0.000000e+00
-1.092000e+00 6.412500e-02 0.000000e+00
-1.008000e+00 6.412500e-02 0.000000e+00
-1.344000e+00 1.282500e-01 0.000000e+00
-1.260000e+00 1.282500e-01 0.000000e+00
-1.176000e+00 1.282500e-01 0.000000e+00
-1.092000e+00 1.282500e-01 0.000000e+00
-1.008000e+00 1.282500e-01 0.000000e+00
-1.344000e+00 1.923750e-01 0.000000e+00
-1.260000e+00 1.923750e-01 0.000000e+00
-1.176000e+00 1.923750e-01 0.000000e+00
-1.092000e+00 1.923750e-01 0.000000e+00
-1.008000e+00 1.923750e-01 0.000000e+00
-1.344000e+00 2.565000e-01 0.000000e+00
-1.260000e+00 2.565000e-01 0.000000e+00
-1.176000e+00 2.565000e-01 0.000000e+00
-1.092000e+00 2.565000e-01 0.000000e+00
-1.008000e+00 2.565000e-01 0.000000e+00
-1.008000e+00 0.000000e+00 0.000000e+00
-9.240000e-01 0.000000e+00 0.000000e+00
-8.400000e-01 0.000000e+00 0.000000e+00
-7.560000e-01 0.000000e+00 0.000000e+00
-6.720000e-01 0.000000e+00 0.000000e+00
-1.008000e+00 6.412500e-02 0.000000e+00
-9.240000e-01 6.412500e-02 0.000000e+00
-8.400000e-01 6.412500e-02 0.000000e+00
-7.560000e-01 6.412500e-02 0.000000e+00
-6.720000e-01 6.412500e-02 0.000000e+00
-1.008000e+00 1.282500e-01 0.000000e+00
-9.240000e-01 1.282500e-01 0.000000e+00
-8.400000e-01 1.282500e-01 0.000000e+00
-7.560000e-01 1.282500e-01 0.000000e+00
-6.720000e-01 1.282500e-01 0.000000e+00
-1.008000e+00 1.923750e-01 0.000000e+00
-9.240000e-01 1.923750e-01 0.000000e+00
-8.400000e-01 1.923750e-01 0.000000e+00
-7.560000e-01 1.923750e-01 0.000000e+00
-6.720000e-01 1.923750e-01 0.000000e+00
-1.008000e+00 2.565000e-01 0.000000e+00
-9.240000e-01 2.565000e-01 0.000000e+00
-8.400000e-01 2.565000e-01 0.000000e+00
-7.560000e-01 2.565000e-01 0.000000e+00
-6.720000e-01 2.565000e-01 0.000000e+00
-6.720000e-01 0.000000e+00 0.000000e+00
-5.880000e-01 0.000000e+00 0.000000e+00
-5.040000e-01 0.000000e+00 0.000000e+00
-4.200000e-01 0.000000e+00 0.000000e+00
-3.360000e-01 0.000000e+00 0.000000e+00
-6.720000e-01 6.412500e-02 0.000000e+00
-5.880000e-01 6.412500e-02 0.000000e+00
-5.040000e-01 6.412500e-02 0.000000e+00
-4.200000e-01 6.412500e-02 0.000000e+00
-3.360000e-01 6.412500e-02 0.000000e+00
-6.720000e-01 1.282500e-01 0.000000e+00
-5.880000e-01 1.282500e-01 0.000000e+00
-5.040000e-01 1.282500e-01 0.000000e+00
-4.200000e-01 1.282500e-01 0.000000e+00
-3.360000e-01 1.282500e-01 0.000000e+00
-6.720000e-01 1.923750e-01 0.000000e+00
-5.880000e-01 1.923750e-01 0.000000e+00
-5.040000e-01 1.923750e-01 0.000000e+00
-4.200000e-01 1.923750e-01 0.000000e+00
-3.360000e-01 1.923750e-01 0.000000e+00
-6.720000e-01 2.565000e-01 0.000000e+00
-5.880000e-01 2.565000e-01 0.000000e+00
-5.040000e-01 2.565000e-01 0.000000e+00
-4.200000e-01 2.565000e-01 0.000000e+00
-3.360000e-01 2.565000e-01 0.000000e+00
-3.360000e-01 0.000000e+00 0.000000e+00
-2.520000e-01 0.000000e+00 0.000000e+00
-1.680000e-01 0.000000e+00 0.000000e+00
-8.400000e-02 0.000000e+00 0.000000e+00
-4.440890e-16 0.000000e+00 0.000000e+00
-3.360000e-01 6.412500e-02 0.000000e+00
-2.520000e-01 6.412500e-02 0.000000e+00
-1.680000e-01 6.412500e-02 0.000000e+00
-8.400000e-02 6.412500e-02 0.000000e+00
-4.440890e-16 6.412500e-02 0.000000e+00
-3.360000e-01 1.282500e-01 0.000000e+00
-2.520000e-01 1.282500e-01 0.000000e+00
-1.680000e-01 1.282500e-01 0.000000e+00
-8.400000e-02 1.282500e-01 0.000000e+00
-4.440890e-16 1.282500e-01 0.000000e+00
-3.360000e-01 1.923750e-01 0.000000e+00
-2.520000e-01 1.923750e-01 0.000000e+00
-1.680000e-01 1.923750e-01 0.000000e+00
[...]
<PointData>
<DataArray type="Float32" Name="V1" format="ascii">
0.000000e+00
0.000000e+00
0.000000e+00
0.000000e+00
0.000000e+00
6.347820e-02
5.960280e-02
5.554280e-02
5.129810e-02
4.686890e-02
1.013490e-01
9.767850e-02
9.321800e-02
8.796720e-02
8.192610e-02
1.136110e-01
1.142270e-01
1.130260e-01
1.100070e-01
1.051720e-01
1.002660e-01
1.092480e-01
1.149660e-01
1.174180e-01
1.166060e-01
0.000000e+00
0.000000e+00
0.000000e+00
0.000000e+00
0.000000e+00
4.686890e-02
4.239470e-02
3.949230e-02
3.816170e-02
3.840290e-02
8.192610e-02
7.569010e-02
7.165010e-02
6.980610e-02
7.015810e-02
1.051720e-01
9.988620e-02
9.647330e-02
9.493310e-02
9.526540e-02
1.166060e-01
1.149830e-01
1.139620e-01
1.135430e-01
1.137250e-01
0.000000e+00
0.000000e+00
0.000000e+00
0.000000e+00
0.000000e+00
3.840290e-02
3.876550e-02
3.934780e-02
4.014970e-02
4.117140e-02
7.015810e-02
7.085440e-02
7.198940e-02
7.356320e-02
7.557580e-02
9.526540e-02
9.626650e-02
9.792480e-02
1.002400e-01
1.032130e-01
1.137250e-01
1.150020e-01
1.171540e-01
1.201810e-01
1.240840e-01
0.000000e+00
0.000000e+00
0.000000e+00
0.000000e+00
0.000000e+00
4.117140e-02
4.231600e-02
4.387570e-02
4.585060e-02
4.824050e-02
7.557580e-02
7.781770e-02
8.073880e-02
8.433920e-02
8.861880e-02
1.032130e-01
1.065050e-01
1.105890e-01
1.154660e-01
1.211350e-01
1.240840e-01
1.283780e-01
1.334270e-01
1.392310e-01
1.457890e-01
0.000000e+00
0.000000e+00
0.000000e+00
0.000000e+00
0.000000e+00
4.824050e-02
5.086540e-02
5.399680e-02
5.763470e-02
6.177920e-02
8.861880e-02
9.331160e-02
9.886930e-02
1.052920e-01
1.125790e-01
1.211350e-01
1.273390e-01
1.346180e-01
1.429720e-01
1.524010e-01
1.457890e-01
1.529460e-01
1.612410e-01
1.706740e-01
1.812430e-01
0.000000e+00
0.000000e+00
0.000000e+00
0.000000e+00
0.000000e+00
6.177920e-02
6.609530e-02
7.141010e-02
7.772380e-02
8.503620e-02
1.125790e-01
1.201590e-01
1.293840e-01
1.402520e-01
1.527660e-01
1.524010e-01
1.621920e-01
1.739200e-01
1.875860e-01
2.031890e-01
1.812430e-01
1.921930e-01
2.050200e-01
2.197240e-01
2.363050e-01
0.000000e+00
0.000000e+00
0.000000e+00
0.000000e+00
0.000000e+00
8.503620e-02
9.219400e-02
1.012090e-01
1.120810e-01
1.248100e-01
1.527660e-01
1.650180e-01
1.802710e-01
1.985240e-01
2.197770e-01
2.031890e-01
2.184730e-01
2.371860e-01
2.593280e-01
2.848980e-01
2.363050e-01
2.525580e-01
2.719540e-01
2.944930e-01
3.201760e-01
0.000000e+00
0.000000e+00
0.000000e+00
0.000000e+00
0.000000e+00
1.248100e-01
1.368280e-01
1.516300e-01
1.692180e-01
1.895910e-01
2.197770e-01
2.399430e-01
2.644890e-01
2.934140e-01
3.267190e-01
2.848980e-01
3.093460e-01
3.385760e-01
3.725880e-01
4.113840e-01
3.201760e-01
3.450360e-01
3.738910e-01
4.067410e-01
4.435860e-01
0.000000e+00
0.000000e+00
0.000000e+00
0.000000e+00
0.000000e+00
1.895910e-01
2.110410e-01
2.340040e-01
2.584820e-01
2.844740e-01
3.267190e-01
3.621240e-01
3.998930e-01
4.400260e-01
4.825230e-01
4.113840e-01
4.532490e-01
4.976650e-01
5.446310e-01
5.941470e-01
4.435860e-01
4.844170e-01
5.273210e-01
5.722970e-01
6.193440e-01
0.000000e+00
0.000000e+00
0.000000e+00
0.000000e+00
0.000000e+00
2.844740e-01
3.178140e-01
3.476990e-01
3.741280e-01
3.971020e-01
4.825230e-01
5.372770e-01
5.870550e-01
6.318580e-01
6.716860e-01
5.941470e-01
6.583870e-01
7.180680e-01
7.731900e-01
8.237530e-01
6.193440e-01
6.811460e-01
7.407400e-01
7.981250e-01
8.533020e-01
0.000000e+00
0.000000e+00
0.000000e+00
0.000000e+00
0.000000e+00
3.971020e-01
4.270230e-01
4.481890e-01
4.606010e-01
4.642580e-01
6.716860e-01
7.232430e-01
7.619540e-01
7.878190e-01
8.008380e-01
8.237530e-01
8.886610e-01
9.412950e-01
9.816540e-01
1.009740e+00
8.533020e-01
9.232760e-01
9.862100e-01
1.042110e+00
1.090960e+00
0.000000e+00
0.000000e+00
0.000000e+00
0.000000e+00
0.000000e+00
4.642580e-01
4.511050e-01
4.295700e-01
3.996540e-01
3.613570e-01
8.008380e-01
7.884180e-01
7.621920e-01
7.221580e-01
6.683180e-01
1.009740e+00
1.011940e+00
9.978650e-01
9.675120e-01
9.208820e-01
1.090960e+00
1.121670e+00
1.136590e+00
1.135720e+00
1.119050e+00
0.000000e+00
0.000000e+00
0.000000e+00
0.000000e+00
0.000000e+00
3.613570e-01
3.041130e-01
2.494170e-01
1.972700e-01
1.476710e-01
6.683180e-01
5.805170e-01
4.929540e-01
4.056290e-01
3.185430e-01
9.208820e-01
8.292110e-01
7.306100e-01
6.250780e-01
5.126170e-01
1.119050e+00
1.050200e+00
9.623850e-01
8.556170e-01
7.298910e-01
0.000000e+00
0.000000e+00
0.000000e+00
0.000000e+00
0.000000e+00
1.476710e-01
1.106220e-01
7.913360e-02
5.320570e-02
3.283840e-02
3.185430e-01
2.488280e-01
1.892870e-01
1.399220e-01
1.007320e-01
5.126170e-01
4.146170e-01
3.304610e-01
2.601490e-01
2.036810e-01
7.298910e-01
6.079890e-01
5.026550e-01
4.138870e-01
3.416860e-01
0.000000e+00
0.000000e+00
0.000000e+00
0.000000e+00
0.000000e+00
3.283840e-02
1.696910e-02
1.024680e-02
1.267140e-02
2.424290e-02
1.007320e-01
7.084500e-02
5.598380e-02
5.614870e-02
7.133950e-02
2.036810e-01
1.616280e-01
1.372110e-01
1.304320e-01
1.412900e-01
3.416860e-01
2.893170e-01
2.539290e-01
2.355210e-01
2.340930e-01
0.000000e+00
0.000000e+00
0.000000e+00
0.000000e+00
0.000000e+00
2.424290e-02
3.108990e-02
3.699120e-02
4.194690e-02
4.595700e-02
7.133950e-02
7.998580e-02
8.717320e-02
9.290170e-02
9.717140e-02
1.412900e-01
1.466880e-01
1.505460e-01
1.528640e-01
1.536430e-01
2.340930e-01
2.311960e-01
2.271100e-01
2.218350e-01
2.153730e-01
0.000000e+00
0.000000e+00
0.000000e+00
0.000000e+00
0.000000e+00
4.595700e-02
4.998850e-02
5.224910e-02
5.273900e-02
5.145810e-02
9.717140e-02
1.017050e-01
1.036000e-01
1.028550e-01
9.947000e-02
1.536430e-01
1.551510e-01
1.540520e-01
1.503470e-01
1.440360e-01
2.153730e-01
2.103250e-01
2.036070e-01
1.952160e-01
1.851550e-01
0.000000e+00
0.000000e+00
0.000000e+00
0.000000e+00
0.000000e+00
5.145810e-02
5.131850e-02
5.056580e-02
4.919990e-02
4.722090e-02
9.947000e-02
9.796720e-02
9.562820e-02
9.245300e-02
8.844180e-02
1.440360e-01
1.399460e-01
1.351870e-01
1.297590e-01
1.236620e-01
1.851550e-01
1.772550e-01
1.692430e-01
1.611190e-01
1.528830e-01
0.000000e+00
0.000000e+00
0.000000e+00
0.000000e+00
0.000000e+00
4.722090e-02
4.593160e-02
4.442370e-02
4.269730e-02
4.075230e-02
8.844180e-02
8.555060e-02
8.240530e-02
7.900580e-02
7.535210e-02
1.236620e-01
1.188570e-01
1.139450e-01
1.089260e-01
1.038000e-01
1.528830e-01
1.458510e-01
1.390420e-01
1.324570e-01
1.260950e-01
0.000000e+00
0.000000e+00
0.000000e+00
0.000000e+00
0.000000e+00
4.075230e-02
3.957800e-02
3.766550e-02
3.501460e-02
3.162550e-02
7.535210e-02
7.273110e-02
6.923430e-02
6.486180e-02
5.961340e-02
1.038000e-01
9.945930e-02
9.470650e-02
8.954140e-02
8.396390e-02
1.260950e-01
1.197620e-01
1.140820e-01
1.090540e-01
1.046770e-01
1.002660e-01
1.092480e-01
1.149660e-01
1.174180e-01
1.166060e-01
9.945850e-02
1.075400e-01
1.135900e-01
1.176080e-01
1.195940e-01
9.848610e-02
1.055170e-01
1.114600e-01
1.163150e-01
1.200820e-01
9.734850e-02
1.031770e-01
1.085740e-01
1.135370e-01
1.180680e-01
9.604590e-02
1.005220e-01
1.049320e-01
1.092760e-01
1.135530e-01
1.166060e-01
1.149830e-01
1.139620e-01
1.135430e-01
1.137250e-01
1.195940e-01
1.202470e-01
1.209840e-01
1.218060e-01
1.227130e-01
1.200820e-01
1.223900e-01
1.244390e-01
1.262290e-01
1.277620e-01
1.180680e-01
1.214120e-01
1.243270e-01
1.268130e-01
1.288710e-01
1.135530e-01
1.173130e-01
1.206480e-01
1.235570e-01
1.260400e-01
1.137250e-01
1.150020e-01
1.171540e-01
1.201810e-01
1.240840e-01
1.227130e-01
1.243580e-01
1.268450e-01
1.301760e-01
1.343510e-01
1.277620e-01
1.297610e-01
1.325310e-01
1.360730e-01
1.403860e-01
1.288710e-01
1.312110e-01
1.342120e-01
1.378710e-01
1.421900e-01
1.260400e-01
1.287100e-01
1.318870e-01
1.355710e-01
1.397630e-01
1.240840e-01
1.283780e-01
1.334270e-01
1.392310e-01
1.457890e-01
1.343510e-01
1.389880e-01
1.443640e-01
1.504790e-01
1.573340e-01
1.403860e-01
1.451970e-01
1.507210e-01
1.569600e-01
1.639120e-01
1.421900e-01
1.470060e-01
1.525000e-01
1.586710e-01
1.655210e-01
1.397630e-01
1.444150e-01
1.496990e-01
1.556150e-01
1.621630e-01
1.457890e-01
1.529460e-01
1.612410e-01
1.706740e-01
1.812430e-01
1.573340e-01
1.647240e-01
1.732260e-01
1.828400e-01
1.935650e-01
1.639120e-01
1.713450e-01
1.798460e-01
1.894150e-01
2.000520e-01
1.655210e-01
1.728080e-01
1.811000e-01
1.903980e-01
2.007020e-01
1.621630e-01
1.691140e-01
1.769890e-01
1.857900e-01
1.955160e-01
1.812430e-01
1.921930e-01
2.050200e-01
2.197240e-01
2.363050e-01
1.935650e-01
2.045980e-01
2.174520e-01
2.321270e-01
2.486230e-01
2.000520e-01
2.109440e-01
2.235810e-01
2.379640e-01
2.540920e-01
2.007020e-01
2.112310e-01
2.234100e-01
2.372370e-01
2.527120e-01
1.955160e-01
2.054600e-01
2.169360e-01
2.299440e-01
2.444840e-01
2.363050e-01
2.525580e-01
2.719540e-01
2.944930e-01
3.201760e-01
2.486230e-01
2.644750e-01
2.835130e-01
3.057370e-01
3.311480e-01
2.540920e-01
2.693420e-01
2.877900e-01
3.094350e-01
3.342780e-01
2.527120e-01
2.671600e-01
2.847850e-01
3.055870e-01
3.295660e-01
2.444840e-01
2.579280e-01
2.744980e-01
2.941920e-01
3.170120e-01
3.201760e-01
3.450360e-01
3.738910e-01
4.067410e-01
4.435860e-01
3.311480e-01
3.549740e-01
3.831600e-01
4.157060e-01
4.526120e-01
3.342780e-01
3.568010e-01
3.840420e-01
4.160000e-01
4.526760e-01
3.295660e-01
3.505170e-01
3.765360e-01
4.076230e-01
4.437770e-01
3.170120e-01
3.361230e-01
3.606440e-01
3.905750e-01
4.259160e-01
4.435860e-01
4.844170e-01
5.273210e-01
5.722970e-01
6.193440e-01
4.526120e-01
4.921880e-01
5.348160e-01
5.804970e-01
6.292310e-01
4.526760e-01
4.907150e-01
5.326790e-01
5.785680e-01
6.283820e-01
4.437770e-01
4.800000e-01
5.209110e-01
5.665100e-01
6.167970e-01
4.259160e-01
4.600420e-01
4.995110e-01
5.443230e-01
5.944770e-01
6.193440e-01
6.811460e-01
7.407400e-01
7.981250e-01
8.533020e-01
6.292310e-01
6.945340e-01
7.578240e-01
8.191010e-01
8.783650e-01
6.283820e-01
6.963830e-01
7.626300e-01
8.271220e-01
8.898590e-01
6.167970e-01
6.866940e-01
7.551580e-01
8.221880e-01
8.877840e-01
5.944770e-01
6.654660e-01
7.354070e-01
8.042980e-01
8.721410e-01
8.533020e-01
9.232760e-01
9.862100e-01
1.042110e+00
1.090960e+00
8.783650e-01
9.587900e-01
1.031230e+00
1.095690e+00
1.152170e+00
8.898590e-01
9.797810e-01
1.060790e+00
1.132880e+00
1.196060e+00
8.877840e-01
9.862510e-01
1.074880e+00
1.153680e+00
1.222640e+00
8.721410e-01
9.781980e-01
1.073510e+00
1.158080e+00
1.231910e+00
1.090960e+00
1.121670e+00
1.136590e+00
1.135720e+00
1.119050e+00
1.152170e+00
1.191030e+00
1.215950e+00
1.226920e+00
1.223930e+00
1.196060e+00
1.241300e+00
1.274160e+00
1.294660e+00
1.302780e+00
1.222640e+00
1.272460e+00
1.311220e+00
1.338940e+00
1.355600e+00
1.231910e+00
1.284520e+00
1.327140e+00
1.359760e+00
1.382380e+00
1.119050e+00
1.050200e+00
9.623850e-01
8.556170e-01
7.298910e-01
1.223930e+00
1.172190e+00
1.102070e+00
1.013560e+00
9.066840e-01
1.302780e+00
1.261880e+00
1.204660e+00
1.131140e+00
1.041320e+00
1.355600e+00
1.319260e+00
1.270170e+00
1.208350e+00
1.133790e+00
1.382380e+00
1.344330e+00
1.298600e+00
1.245190e+00
1.184100e+00
7.298910e-01
6.079890e-01
5.026550e-01
4.138870e-01
3.416860e-01
9.066840e-01
7.818140e-01
6.688690e-01
5.678490e-01
4.787540e-01
1.041320e+00
9.206710e-01
8.066620e-01
6.992910e-01
5.985580e-01
1.133790e+00
1.024560e+00
9.160340e-01
8.082150e-01
7.011000e-01
1.184100e+00
1.093480e+00
9.969860e-01
8.946190e-01
7.863790e-01
3.416860e-01
2.893170e-01
2.539290e-01
2.355210e-01
2.340930e-01
4.787540e-01
4.143910e-01
3.659640e-01
3.334710e-01
3.169130e-01
5.985580e-01
5.241800e-01
4.642640e-01
4.188080e-01
3.878140e-01
7.011000e-01
6.186840e-01
5.488280e-01
4.915320e-01
4.467970e-01
7.863790e-01
6.979020e-01
6.196560e-01
5.516430e-01
4.938610e-01
2.340930e-01
2.311960e-01
2.271100e-01
2.218350e-01
2.153730e-01
3.169130e-01
3.028270e-01
2.888730e-01
2.750500e-01
2.613590e-01
3.878140e-01
3.627300e-01
3.391750e-01
3.171480e-01
2.966490e-01
4.467970e-01
4.109040e-01
3.780150e-01
3.481280e-01
3.212450e-01
4.938610e-01
4.473490e-01
4.053930e-01
3.679910e-01
3.351460e-01
2.153730e-01
2.103250e-01
2.036070e-01
1.952160e-01
1.851550e-01
2.613590e-01
2.504680e-01
2.386780e-01
2.259890e-01
2.124010e-01
2.966490e-01
2.806290e-01
2.644930e-01
2.482430e-01
2.318780e-01
3.212450e-01
3.008090e-01
2.810530e-01
2.619780e-01
2.435840e-01
3.351460e-01
3.110070e-01
2.883570e-01
2.671950e-01
2.475210e-01
1.851550e-01
1.772550e-01
1.692430e-01
1.611190e-01
1.528830e-01
2.124010e-01
2.015640e-01
1.910200e-01
1.807670e-01
1.708060e-01
2.318780e-01
2.186480e-01
2.060880e-01
1.941960e-01
1.829720e-01
2.435840e-01
2.285070e-01
2.144470e-01
2.014060e-01
1.893840e-01
2.475210e-01
2.311390e-01
2.160980e-01
2.023980e-01
1.900390e-01
1.528830e-01
1.458510e-01
1.390420e-01
1.324570e-01
1.260950e-01
1.708060e-01
1.623470e-01
1.542740e-01
1.465860e-01
1.392820e-01
1.829720e-01
1.734740e-01
1.645060e-01
1.560660e-01
1.481560e-01
1.893840e-01
1.792330e-01
1.697380e-01
1.608980e-01
1.527150e-01
1.900390e-01
1.796220e-01
1.699700e-01
1.610830e-01
1.529610e-01
1.260950e-01
1.197620e-01
1.140820e-01
1.090540e-01
1.046770e-01
1.392820e-01
1.322720e-01
1.260330e-01
1.205660e-01
1.158700e-01
1.481560e-01
1.407110e-01
1.341160e-01
1.283690e-01
1.234700e-01
1.527150e-01
1.450800e-01
1.383290e-01
1.324610e-01
1.274760e-01
1.529610e-01
1.453790e-01
1.386730e-01
1.328430e-01
1.278890e-01
9.604590e-02
1.005220e-01
1.049320e-01
1.092760e-01
1.135530e-01
9.458900e-02
9.857870e-02
1.025420e-01
1.064780e-01
1.103870e-01
9.299440e-02
9.664290e-02
1.002560e-01
1.038320e-01
1.073730e-01
9.126190e-02
9.471510e-02
9.807410e-02
1.013390e-01
1.045100e-01
8.939170e-02
9.279520e-02
9.599740e-02
9.899820e-02
1.017980e-01
1.135530e-01
1.173130e-01
1.206480e-01
1.235570e-01
1.260400e-01
1.103870e-01
1.140120e-01
1.173530e-01
1.204090e-01
1.231810e-01
1.073730e-01
1.108070e-01
1.140860e-01
1.172080e-01
1.201750e-01
1.045100e-01
1.076980e-01
1.108460e-01
1.139530e-01
1.170200e-01
1.017980e-01
1.046840e-01
1.076330e-01
1.106440e-01
1.137160e-01
1.260400e-01
1.287100e-01
1.318870e-01
1.355710e-01
1.397630e-01
1.231810e-01
1.260810e-01
1.293980e-01
1.331340e-01
1.372880e-01
1.201750e-01
1.232380e-01
1.266440e-01
1.303920e-01
1.344830e-01
1.170200e-01
1.201810e-01
1.236230e-01
1.273460e-01
1.313490e-01
1.137160e-01
1.169100e-01
1.203360e-01
1.239940e-01
1.278850e-01
1.397630e-01
1.444150e-01
1.496990e-01
1.556150e-01
1.621630e-01
1.372880e-01
1.418370e-01
1.469820e-01
1.527240e-01
1.590610e-01
1.344830e-01
1.389100e-01
1.438940e-01
1.494350e-01
1.555330e-01
1.313490e-01
1.356340e-01
1.404340e-01
1.457490e-01
1.515790e-01
1.278850e-01
1.320080e-01
1.366010e-01
1.416650e-01
1.471980e-01
1.621630e-01
1.691140e-01
1.769890e-01
1.857900e-01
1.955160e-01
1.590610e-01
1.657580e-01
1.733280e-01
1.817710e-01
1.910880e-01
1.555330e-01
1.619420e-01
1.691680e-01
1.772110e-01
1.860720e-01
1.515790e-01
1.576660e-01
1.645100e-01
1.721110e-01
1.804690e-01
1.471980e-01
1.529300e-01
1.593540e-01
1.664700e-01
1.742780e-01
1.955160e-01
2.054600e-01
2.169360e-01
2.299440e-01
2.444840e-01
1.910880e-01
2.005700e-01
2.115070e-01
2.238990e-01
2.377460e-01
1.860720e-01
1.950260e-01
2.053510e-01
2.170490e-01
2.301180e-01
1.804690e-01
1.888270e-01
1.984680e-01
2.093930e-01
2.216010e-01
1.742780e-01
1.819740e-01
1.908590e-01
2.009320e-01
2.121940e-01
2.444840e-01
2.579280e-01
2.744980e-01
2.941920e-01
3.170120e-01
2.377460e-01
2.504180e-01
2.661520e-01
2.849490e-01
3.068080e-01
2.301180e-01
2.419170e-01
2.566740e-01
2.743920e-01
2.950680e-01
2.216010e-01
2.324250e-01
2.460650e-01
2.625200e-01
2.817910e-01
2.121940e-01
2.219430e-01
2.343240e-01
2.493350e-01
2.669770e-01
3.170120e-01
3.361230e-01
3.606440e-01
3.905750e-01
4.259160e-01
3.068080e-01
3.239330e-01
3.470670e-01
3.762100e-01
4.113640e-01
2.950680e-01
3.100160e-01
3.314970e-01
3.595110e-01
3.940590e-01
2.817910e-01
2.943730e-01
3.139350e-01
3.404770e-01
3.740000e-01
2.669770e-01
2.770030e-01
2.943800e-01
3.191080e-01
3.511870e-01
4.259160e-01
4.600420e-01
4.995110e-01
5.443230e-01
5.944770e-01
4.113640e-01
4.435190e-01
4.813440e-01
5.248400e-01
5.740070e-01
3.940590e-01
4.226300e-01
4.577370e-01
4.993790e-01
5.475570e-01
3.740000e-01
3.973750e-01
4.286890e-01
4.679400e-01
5.151280e-01
3.511870e-01
3.677550e-01
3.942000e-01
4.305220e-01
4.767200e-01
5.944770e-01
6.654660e-01
7.354070e-01
8.042980e-01
8.721410e-01
5.740070e-01
6.471580e-01
7.179410e-01
7.863580e-01
8.524080e-01
5.475570e-01
6.211570e-01
6.898890e-01
7.537540e-01
8.127510e-01
5.151280e-01
5.874640e-01
6.512490e-01
7.064840e-01
7.531690e-01
4.767200e-01
5.460790e-01
6.020220e-01
6.445500e-01
6.736620e-01
8.721410e-01
9.781980e-01
1.073510e+00
1.158080e+00
1.231910e+00
8.524080e-01
9.642550e-01
1.063120e+00
1.149010e+00
1.221920e+00
8.127510e-01
9.297780e-01
1.030940e+00
1.116250e+00
1.185700e+00
7.531690e-01
8.747680e-01
9.769780e-01
1.059800e+00
1.123230e+00
6.736620e-01
7.992250e-01
9.012230e-01
9.796560e-01
1.034520e+00
1.231910e+00
1.284520e+00
1.327140e+00
1.359760e+00
1.382380e+00
1.221920e+00
1.274040e+00
1.318400e+00
1.354990e+00
1.383820e+00
1.185700e+00
1.235630e+00
1.279670e+00
1.317810e+00
1.350070e+00
1.123230e+00
1.169280e+00
1.210940e+00
1.248220e+00
1.281120e+00
1.034520e+00
1.075000e+00
1.112230e+00
1.146220e+00
1.176970e+00
1.382380e+00
1.344330e+00
1.298600e+00
1.245190e+00
1.184100e+00
1.383820e+00
1.348640e+00
1.305850e+00
1.255450e+00
1.197430e+00
1.350070e+00
1.314810e+00
1.275020e+00
1.230680e+00
1.181790e+00
1.281120e+00
1.242850e+00
1.206100e+00
1.170880e+00
1.137170e+00
1.176970e+00
1.132740e+00
1.099110e+00
1.076050e+00
1.063580e+00
1.184100e+00
1.093480e+00
9.969860e-01
8.946190e-01
7.863790e-01
1.197430e+00
1.110980e+00
1.019480e+00
9.229160e-01
8.213010e-01
1.181790e+00
1.100500e+00
1.014480e+00
9.237260e-01
8.282480e-01
1.137170e+00
1.062030e+00
9.819850e-01
8.970490e-01
8.072200e-01
1.063580e+00
9.955700e-01
9.220040e-01
8.428860e-01
7.582160e-01
7.863790e-01
6.979020e-01
6.196560e-01
5.516430e-01
4.938610e-01
8.213010e-01
7.387750e-01
6.615190e-01
5.895340e-01
5.228190e-01
8.282480e-01
7.548480e-01
6.818840e-01
6.093580e-01
5.372680e-01
8.072200e-01
7.461190e-01
6.807500e-01
6.111140e-01
5.372090e-01
7.582160e-01
7.125890e-01
6.581180e-01
5.948020e-01
5.226420e-01
4.938610e-01
4.473490e-01
4.053930e-01
3.679910e-01
3.351460e-01
5.228190e-01
4.685770e-01
4.199690e-01
3.769940e-01
3.396510e-01
5.372680e-01
4.782810e-01
4.255620e-01
3.791140e-01
3.389350e-01
5.372090e-01
4.764580e-01
4.221730e-01
3.743520e-01
3.329960e-01
5.226420e-01
4.631110e-01
4.098000e-01
3.627080e-01
3.218350e-01
3.351460e-01
3.110070e-01
2.883570e-01
2.671950e-01
2.475210e-01
3.396510e-01
3.131000e-01
2.887570e-01
2.666240e-01
2.467000e-01
3.389350e-01
3.111530e-01
2.860500e-01
2.636260e-01
2.438810e-01
3.329960e-01
3.051660e-01
2.802350e-01
2.582000e-01
2.390640e-01
3.218350e-01
2.951400e-01
2.713110e-01
2.503480e-01
2.322500e-01
2.475210e-01
2.311390e-01
2.160980e-01
2.023980e-01
1.900390e-01
2.467000e-01
2.297650e-01
2.143690e-01
2.005110e-01
1.881920e-01
2.438810e-01
2.267270e-01
2.112560e-01
1.974670e-01
1.853610e-01
2.390640e-01
2.220250e-01
2.067600e-01
1.932670e-01
1.815460e-01
2.322500e-01
2.156600e-01
2.008800e-01
1.879090e-01
1.767480e-01
1.900390e-01
1.796220e-01
1.699700e-01
1.610830e-01
1.529610e-01
1.881920e-01
1.778860e-01
1.683720e-01
1.596480e-01
1.517160e-01
1.853610e-01
1.752960e-01
1.660220e-01
1.575410e-01
1.498510e-01
1.815460e-01
1.718490e-01
1.629200e-01
1.547590e-01
1.473680e-01
1.767480e-01
1.675470e-01
1.590660e-01
1.513050e-01
1.442640e-01
1.529610e-01
1.453790e-01
1.386730e-01
1.328430e-01
1.278890e-01
1.517160e-01
1.442710e-01
1.377210e-01
1.320640e-01
1.273020e-01
1.498510e-01
1.425820e-01
1.362210e-01
1.307680e-01
1.262220e-01
1.473680e-01
1.403120e-01
1.341740e-01
1.289530e-01
1.246500e-01
1.442640e-01
1.374610e-01
1.315810e-01
1.266220e-01
1.225850e-01
8.939170e-02
9.279520e-02
9.599740e-02
9.899820e-02
1.017980e-01
8.740010e-02
9.058500e-02
9.358860e-02
9.641100e-02
9.905220e-02
8.530680e-02
8.826770e-02
9.107460e-02
9.372740e-02
9.622620e-02
8.311190e-02
8.584350e-02
8.845530e-02
9.094730e-02
9.331950e-02
8.081530e-02
8.331220e-02
8.573070e-02
8.807070e-02
9.033220e-02
1.017980e-01
1.046840e-01
1.076330e-01
1.106440e-01
1.137160e-01
9.905220e-02
1.017400e-01
1.045400e-01