<?xml version="1.0"?>
<VTKFile type="UnstructuredGrid" version="0.1" byte_order="LittleEndian" compressor="vtkZLibDataCompressor">
<UnstructuredGrid>
<Piece NumberOfPoints="10000" NumberOfCells="6400">
<Points>
<DataArray type="Float32" NumberOfComponents="3" format="ascii">
-3.360000e+00 0.000000e+00 0.000000e+00
-3.276000e+00 0.000000e+00 0.000000e+00
-3.192000e+00 0.000000e+00 0.000000e+00
-3.108000e+00 0.000000e+00 0.000000e+00
-3.024000e+00 0.000000e+00 0.000000e+00
-3.360000e+00 6.412500e-02 0.000000e+00
-3.276000e+00 6.412500e-02 0.000000e+00
-3.192000e+00 6.412500e-02 0.000000e+00
-3.108000e+00 6.412500e-02 0.000000e+00
-3.024000e+00 6.412500e-02 0.000000e+00
-3.360000e+00 1.282500e-01 0.000000e+00
-3.276000e+00 1.282500e-01 0.000000e+00
-3.192000e+00 1.282500e-01 0.000000e+00
-3.108000e+00 1.282500e-01 0.000000e+00
-3.024000e+00 1.282500e-01 0.000000e+00
-3.360000e+00 1.923750e-01 0.000000e+00
-3.276000e+00 1.923750e-01 0.000000e+00
-3.192000e+00 1.923750e-01 0.000000e+00
-3.108000e+00 1.923750e-01 0.000000e+00
-3.024000e+00 1.923750e-01 0.000000e+00
-3.360000e+00 2.565000e-01 0.000000e+00
-3.276000e+00 2.565000e-01 0.000000e+00
-3.192000e+00 2.565000e-01 0.000000e+00
-3.108000e+00 2.565000e-01 0.000000e+00
-3.024000e+00 2.565000e-01 0.000000e+00
-3.024000e+00 0.000000e+00 0.000000e+00
-2.940000e+00 0.000000e+00 0.000000e+00
-2.856000e+00 0.000000e+00 0.000000e+00
-2.772000e+00 0.000000e+00 0.000000e+00
-2.688000e+00 0.000000e+00 0.000000e+00
-3.024000e+00 6.412500e-02 0.000000e+00
-2.940000e+00 6.412500e-02 0.000000e+00
-2.856000e+00 6.412500e-02 0.000000e+00
-2.772000e+00 6.412500e-02 0.000000e+00
-2.688000e+00 6.412500e-02 0.000000e+00
-3.024000e+00 1.282500e-01 0.000000e+00
-2.940000e+00 1.282500e-01 0.000000e+00
-2.856000e+00 1.282500e-01 0.000000e+00
-2.772000e+00 1.282500e-01 0.000000e+00
-2.688000e+00 1.282500e-01 0.000000e+00
-3.024000e+00 1.923750e-01 0.000000e+00
-2.940000e+00 1.923750e-01 0.000000e+00
-2.856000e+00 1.923750e-01 0.000000e+00
-2.772000e+00 1.923750e-01 0.000000e+00
-2.688000e+00 1.923750e-01 0.000000e+00
-3.024000e+00 2.565000e-01 0.000000e+00
-2.940000e+00 2.565000e-01 0.000000e+00
-2.856000e+00 2.565000e-01 0.000000e+00
-2.772000e+00 2.565000e-01 0.000000e+00
-2.688000e+00 2.565000e-01 0.000000e+00
-2.688000e+00 0.000000e+00 0.000000e+00
-2.604000e+00 0.000000e+00 0.000000e+00
-2.520000e+00 0.000000e+00 0.000000e+00
-2.436000e+00 0.000000e+00 0.000000e+00
-2.352000e+00 0.000000e+00 0.000000e+00
-2.688000e+00 6.412500e-02 0.000000e+00
-2.604000e+00 6.412500e-02 0.000000e+00
-2.520000e+00 6.412500e-02 0.000000e+00
-2.436000e+00 6.412500e-02 0.000000e+00
-2.352000e+00 6.412500e-02 0.000000e+00
-2.688000e+00 1.282500e-01 0.000000e+00
-2.604000e+00 1.282500e-01 0.000000e+00
-2.520000e+00 1.282500e-01 0.000000e+00
-2.436000e+00 1.282500e-01 0.000000e+00
-2.352000e+00 1.282500e-01 0.000000e+00
-2.688000e+00 1.923750e-01 0.000000e+00
-2.604000e+00 1.923750e-01 0.000000e+00
-2.520000e+00 1.923750e-01 0.000000e+00
-2.436000e+00 1.923750e-01 0.000000e+00
-2.352000e+00 1.923750e-01 0.000000e+00
-2.688000e+00 2.565000e-01 0.000000e+00
-2.604000e+00 2.565000e-01 0.000000e+00
-2.520000e+00 2.565000e-01 0.000000e+00
-2.436000e+00 2.565000e-01 0.000000e+00
-2.352000e+00 2.565000e-01 0.000000e+00
-2.352000e+00 0.000000e+00 0.000000e+00
-2.268000e+00 0.000000e+00 0.000000e+00
-2.184000e+00 0.000000e+00 0.000000e+00
-2.100000e+00 0.000000e+00 0.000000e+00
-2.016000e+00 0.000000e+00 0.000000e+00
-2.352000e+00 6.412500e-02 0.000000e+00
-2.268000e+00 6.412500e-02 0.000000e+00
-2.184000e+00 6.412500e-02 0.000000e+00
-2.100000e+00 6.412500e-02 0.000000e+00
-2.016000e+00 6.412500e-02 0.000000e+00
-2.352000e+00 1.282500e-01 0.000000e+00
-2.268000e+00 1.282500e-01 0.000000e+00
-2.184000e+00 1.282500e-01 0.000000e+00
-2.100000e+00 1.282500e-01 0.000000e+00
-2.016000e+00 1.282500e-01 0.000000e+00
-2.352000e+00 1.923750e-01 0.000000e+00
-2.268000e+00 1.923750e-01 0.000000e+00
-2.184000e+00 1.923750e-01 0.000000e+00
-2.100000e+00 1.923750e-01 0.000000e+00
-2.016000e+00 1.923750e-01 0.000000e+00
-2.352000e+00 2.565000e-01 0.000000e+00
-2.268000e+00 2.565000e-01 0.000000e+00
-2.184000e+00 2.565000e-01 0.000000e+00
-2.100000e+00 2.565000e-01 0.000000e+00
-2.016000e+00 2.565000e-01 0.000000e+00
-2.016000e+00 0.000000e+00 0.000000e+00
-1.932000e+00 0.000000e+00 0.000000e+00
-1.848000e+00 0.000000e+00 0.000000e+00
-1.764000e+00 0.000000e+00 0.000000e+00
-1.680000e+00 0.000000e+00 0.000000e+00
-2.016000e+00 6.412500e-02 0.000000e+00
-1.932000e+00 6.412500e-02 0.000000e+00
-1.848000e+00 6.412500e-02 0.000000e+00
-1.764000e+00 6.412500e-02 0.000000e+00
-1.680000e+00 6.412500e-02 0.000000e+00
-2.016000e+00 1.282500e-01 0.000000e+00
-1.932000e+00 1.282500e-01 0.000000e+00
-1.848000e+00 1.282500e-01 0.000000e+00
-1.764000e+00 1.282500e-01 0.000000e+00
-1.680000e+00 1.282500e-01 0.000000e+00
-2.016000e+00 1.923750e-01 0.000000e+00
-1.932000e+00 1.923750e-01 0.000000e+00
-1.848000e+00 1.923750e-01 0.000000e+00
-1.764000e+00 1.923750e-01 0.000000e+00
-1.680000e+00 1.923750e-01 0.000000e+00
-2.016000e+00 2.565000e-01 0.000000e+00
-1.932000e+00 2.565000e-01 0.000000e+00
-1.848000e+00 2.565000e-01 0.000000e+00
-1.764000e+00 2.565000e-01 0.000000e+00
-1.680000e+00 2.565000e-01 0.000000e+00
-1.680000e+00 0.000000e+00 0.000000e+00
-1.596000e+00 0.000000e+00 0.000000e+00
-1.512000e+00 0.000000e+00 0.000000e+00
-1.428000e+00 0.000000e+00 0.000000e+00
-1.344000e+00 0.000000e+00 0.000000e+00
-1.680000e+00 6.412500e-02 0.000000e+00
-1.596000e+00 6.412500e-02 0.000000e+00
-1.512000e+00 6.412500e-02 0.000000e+00
-1.428000e+00 6.412500e-02 0.000000e+00
-1.344000e+00 6.412500e-02 0.000000e+00
-1.680000e+00 1.282500e-01 0.000000e+00
-1.596000e+00 1.282500e-01 0.000000e+00
-1.512000e+00 1.282500e-01 0.000000e+00
-1.428000e+00 1.282500e-01 0.000000e+00
-1.344000e+00 1.282500e-01 0.000000e+00
-1.680000e+00 1.923750e-01 0.000000e+00
-1.596000e+00 1.923750e-01 0.000000e+00
-1.512000e+00 1.923750e-01 0.000000e+00
-1.428000e+00 1.923750e-01 0.000000e+00
-1.344000e+00 1.923750e-01 0.000000e+00
-1.680000e+00 2.565000e-01 0.000000e+00
-1.596000e+00 2.565000e-01 0.000000e+00
-1.512000e+00 2.565000e-01 0.000000e+00
-1.428000e+00 2.565000e-01 0.000000e+00
-1.344000e+00 2.565000e-01 0.000000e+00
-1.344000e+00 0.000000e+00 0.000000e+00
-1.260000e+00 0.000000e+00 0.000000e+00
-1.176000e+00 0.000000e+00 0.000000e+00
-1.092000e+00 0.000000e+00 0.000000e+00
-1.008000e+00 0.000000e+00 0.000000e+00
-1.344000e+00 6.412500e-02 0.000000e+00
-1.260000e+00 6.412500e-02 0.000000e+00
-1.176000e+00 6.412500e-02 0.000000e+00
-1.092000e+00 6.412500e-02 0.000000e+00
-1.008000e+00 6.412500e-02 0.000000e+00
-1.344000e+00 1.282500e-01 0.000000e+00
-1.260000e+00 1.282500e-01 0.000000e+00
-1.176000e+00 1.282500e-01 0.000000e+00
-1.092000e+00 1.282500e-01 0.000000e+00
-1.008000e+00 1.282500e-01 0.000000e+00
-1.344000e+00 1.923750e-01 0.000000e+00
-1.260000e+00 1.923750e-01 0.000000e+00
-1.176000e+00 1.923750e-01 0.000000e+00
-1.092000e+00 1.923750e-01 0.000000e+00
-1.008000e+00 1.923750e-01 0.000000e+00
-1.344000e+00 2.565000e-01 0.000000e+00
-1.260000e+00 2.565000e-01 0.000000e+00
-1.176000e+00 2.565000e-01 0.000000e+00
-1.092000e+00 2.565000e-01 0.000000e+00
-1.008000e+00 2.565000e-01 0.000000e+00
-1.008000e+00 0.000000e+00 0.000000e+00
-9.240000e-01 0.000000e+00 0.000000e+00
-8.400000e-01 0.000000e+00 0.000000e+00
-7.560000e-01 0.000000e+00 0.000000e+00
-6.720000e-01 0.000000e+00 0.000000e+00
-1.008000e+00 6.412500e-02 0.000000e+00
-9.240000e-01 6.412500e-02 0.000000e+00
-8.400000e-01 6.412500e-02 0.000000e+00
-7.560000e-01 6.412500e-02 0.000000e+00
-6.720000e-01 6.412500e-02 0.000000e+00
-1.008000e+00 1.282500e-01 0.000000e+00
-9.240000e-01 1.282500e-01 0.000000e+00
-8.400000e-01 1.282500e-01 0.000000e+00
-7.560000e-01 1.282500e-01 0.000000e+00
-6.720000e-01 1.282500e-01 0.000000e+00
-1.008000e+00 1.923750e-01 0.000000e+00
-9.240000e-01 1.923750e-01 0.000000e+00
-8.400000e-01 1.923750e-01 0.000000e+00
-7.560000e-01 1.923750e-01 0.000000e+00
-6.720000e-01 1.923750e-01 0.000000e+00
-1.008000e+00 2.565000e-01 0.000000e+00
-9.240000e-01 2.565000e-01 0.000000e+00
-8.400000e-01 2.565000e-01 0.000000e+00
-7.560000e-01 2.565000e-01 0.000000e+00
-6.720000e-01 2.565000e-01 0.000000e+00
-6.720000e-01 0.000000e+00 0.000000e+00
-5.880000e-01 0.000000e+00 0.000000e+00
-5.040000e-01 0.000000e+00 0.000000e+00
-4.200000e-01 0.000000e+00 0.000000e+00
-3.360000e-01 0.000000e+00 0.000000e+00
-6.720000e-01 6.412500e-02 0.000000e+00
-5.880000e-01 6.412500e-02 0.000000e+00
-5.040000e-01 6.412500e-02 0.000000e+00
-4.200000e-01 6.412500e-02 0.000000e+00
-3.360000e-01 6.412500e-02 0.000000e+00
-6.720000e-01 1.282500e-01 0.000000e+00
-5.880000e-01 1.282500e-01 0.000000e+00
-5.040000e-01 1.282500e-01 0.000000e+00
-4.200000e-01 1.282500e-01 0.000000e+00
-3.360000e-01 1.282500e-01 0.000000e+00
-6.720000e-01 1.923750e-01 0.000000e+00
-5.880000e-01 1.923750e-01 0.000000e+00
-5.040000e-01 1.923750e-01 0.000000e+00
-4.200000e-01 1.923750e-01 0.000000e+00
-3.360000e-01 1.923750e-01 0.000000e+00
-6.720000e-01 2.565000e-01 0.000000e+00
-5.880000e-01 2.565000e-01 0.000000e+00
-5.040000e-01 2.565000e-01 0.000000e+00
-4.200000e-01 2.565000e-01 0.000000e+00
-3.360000e-01 2.565000e-01 0.000000e+00
-3.360000e-01 0.000000e+00 0.000000e+00
-2.520000e-01 0.000000e+00 0.000000e+00
-1.680000e-01 0.000000e+00 0.000000e+00
-8.400000e-02 0.000000e+00 0.000000e+00
-4.440890e-16 0.000000e+00 0.000000e+00
-3.360000e-01 6.412500e-02 0.000000e+00
-2.520000e-01 6.412500e-02 0.000000e+00
-1.680000e-01 6.412500e-02 0.000000e+00
-8.400000e-02 6.412500e-02 0.000000e+00
-4.440890e-16 6.412500e-02 0.000000e+00
-3.360000e-01 1.282500e-01 0.000000e+00
-2.520000e-01 1.282500e-01 0.000000e+00
-1.680000e-01 1.282500e-01 0.000000e+00
-8.400000e-02 1.282500e-01 0.000000e+00
-4.440890e-16 1.282500e-01 0.000000e+00
-3.360000e-01 1.923750e-01 0.000000e+00
-2.520000e-01 1.923750e-01 0.000000e+00
-1.680000e-01 1.923750e-01 0.000000e+00
[...]
<PointData>
<DataArray type="Float32" Name="V1" format="ascii">
0.000000e+00
0.000000e+00
0.000000e+00
0.000000e+00
0.000000e+00
6.347820e-02
5.968240e-02
5.541010e-02
5.066150e-02
4.543660e-02
1.013490e-01
9.780930e-02
9.301150e-02
8.695500e-02
7.964000e-02
1.136110e-01
1.143810e-01
1.128040e-01
1.088800e-01
1.026100e-01
1.002660e-01
1.093970e-01
1.147880e-01
1.164380e-01
1.143470e-01
0.000000e+00
0.000000e+00
0.000000e+00
0.000000e+00
0.000000e+00
4.543660e-02
3.970620e-02
3.533960e-02
3.233690e-02
3.069800e-02
7.964000e-02
7.131120e-02
6.479390e-02
6.008810e-02
5.719360e-02
1.026100e-01
9.481510e-02
8.836290e-02
8.325360e-02
7.948700e-02
1.143470e-01
1.102180e-01
1.060470e-01
1.018330e-01
9.757810e-02
0.000000e+00
0.000000e+00
0.000000e+00
0.000000e+00
0.000000e+00
3.069800e-02
2.927350e-02
2.814680e-02
2.731790e-02
2.678680e-02
5.719360e-02
5.476840e-02
5.289700e-02
5.157940e-02
5.081550e-02
7.948700e-02
7.648500e-02
7.425080e-02
7.278450e-02
7.208610e-02
9.757810e-02
9.442300e-02
9.220810e-02
9.093320e-02
9.059850e-02
0.000000e+00
0.000000e+00
0.000000e+00
0.000000e+00
0.000000e+00
2.678680e-02
2.640190e-02
2.632340e-02
2.655140e-02
2.708570e-02
5.081550e-02
5.032950e-02
5.035150e-02
5.088150e-02
5.191960e-02
7.208610e-02
7.178270e-02
7.208410e-02
7.299050e-02
7.450170e-02
9.059850e-02
9.076150e-02
9.152140e-02
9.287830e-02
9.483200e-02
0.000000e+00
0.000000e+00
0.000000e+00
0.000000e+00
0.000000e+00
2.708570e-02
2.776860e-02
2.865450e-02
2.974340e-02
3.103520e-02
5.191960e-02
5.323870e-02
5.492930e-02
5.699160e-02
5.942550e-02
7.450170e-02
7.641010e-02
7.882440e-02
8.174470e-02
8.517090e-02
9.483200e-02
9.728290e-02
1.003400e-01
1.040030e-01
1.082710e-01
0.000000e+00
0.000000e+00
0.000000e+00
0.000000e+00
0.000000e+00
3.103520e-02
3.252530e-02
3.434450e-02
3.649270e-02
3.897010e-02
5.942550e-02
6.221200e-02
6.556550e-02
6.948610e-02
7.397380e-02
8.517090e-02
8.906000e-02
9.366310e-02
9.898020e-02
1.050110e-01
1.082710e-01
1.130690e-01
1.186370e-01
1.249750e-01
1.320820e-01
0.000000e+00
0.000000e+00
0.000000e+00
0.000000e+00
0.000000e+00
3.897010e-02
4.170570e-02
4.496820e-02
4.875760e-02
5.307390e-02
7.397380e-02
7.891230e-02
8.474320e-02
9.146640e-02
9.908200e-02
1.050110e-01
1.116200e-01
1.193250e-01
1.281260e-01
1.380250e-01
1.320820e-01
1.398280e-01
1.487130e-01
1.587370e-01
1.699010e-01
0.000000e+00
0.000000e+00
0.000000e+00
0.000000e+00
0.000000e+00
5.307390e-02
5.765640e-02
6.315530e-02
6.957060e-02
7.690220e-02
9.908200e-02
1.071500e-01
1.167330e-01
1.278310e-01
1.404440e-01
1.380250e-01
1.484810e-01
1.607340e-01
1.747820e-01
1.906260e-01
1.699010e-01
1.816500e-01
1.951570e-01
2.104230e-01
2.274470e-01
0.000000e+00
0.000000e+00
0.000000e+00
0.000000e+00
0.000000e+00
7.690220e-02
8.434590e-02
9.323660e-02
1.035740e-01
1.153590e-01
1.404440e-01
1.532590e-01
1.684170e-01
1.859170e-01
2.057600e-01
1.906260e-01
2.067400e-01
2.255410e-01
2.470280e-01
2.712020e-01
2.274470e-01
2.447880e-01
2.646080e-01
2.869080e-01
3.116860e-01
0.000000e+00
0.000000e+00
0.000000e+00
0.000000e+00
0.000000e+00
1.153590e-01
1.273770e-01
1.408270e-01
1.557090e-01
1.720230e-01
2.057600e-01
2.261050e-01
2.487370e-01
2.736540e-01
3.008570e-01
2.712020e-01
2.961860e-01
3.237300e-01
3.538350e-01
3.865010e-01
3.116860e-01
3.376180e-01
3.658070e-01
3.962540e-01
4.289570e-01
0.000000e+00
0.000000e+00
0.000000e+00
0.000000e+00
0.000000e+00
1.720230e-01
1.905340e-01
2.084340e-01
2.257240e-01
2.424030e-01
3.008570e-01
3.319080e-01
3.621380e-01
3.915460e-01
4.201320e-01
3.865010e-01
4.241230e-01
4.611110e-01
4.974660e-01
5.331870e-01
4.289570e-01
4.671790e-01
5.053550e-01
5.434850e-01
5.815680e-01
0.000000e+00
0.000000e+00
0.000000e+00
0.000000e+00
0.000000e+00
2.424030e-01
2.631200e-01
2.793230e-01
2.910110e-01
2.981860e-01
4.201320e-01
4.556570e-01
4.845080e-01
5.066840e-01
5.221860e-01
5.331870e-01
5.776120e-01
6.155560e-01
6.470190e-01
6.720010e-01
5.815680e-01
6.289840e-01
6.724670e-01
7.120160e-01
7.476300e-01
0.000000e+00
0.000000e+00
0.000000e+00
0.000000e+00
0.000000e+00
2.981860e-01
3.008450e-01
2.974290e-01
2.879370e-01
2.723690e-01
5.221860e-01
5.311990e-01
5.305190e-01
5.201470e-01
5.000820e-01
6.720010e-01
6.910610e-01
6.992710e-01
6.966310e-01
6.831400e-01
7.476300e-01
7.804310e-01
8.036840e-01
8.173880e-01
8.215430e-01
0.000000e+00
0.000000e+00
0.000000e+00
0.000000e+00
0.000000e+00
2.723690e-01
2.407020e-01
2.091960e-01
1.778490e-01
1.466630e-01
5.000820e-01
4.531610e-01
4.038660e-01
3.521950e-01
2.981500e-01
6.831400e-01
6.373770e-01
5.840100e-01
5.230380e-01
4.544620e-01
8.215430e-01
7.933500e-01
7.496280e-01
6.903770e-01
6.155980e-01
0.000000e+00
0.000000e+00
0.000000e+00
0.000000e+00
0.000000e+00
1.466630e-01
1.178480e-01
9.183790e-02
6.863330e-02
4.823400e-02
2.981500e-01
2.438580e-01
1.936880e-01
1.476390e-01
1.057130e-01
4.544620e-01
3.780310e-01
3.055500e-01
2.370180e-01
1.724360e-01
6.155980e-01
5.203670e-01
4.274240e-01
3.367700e-01
2.484040e-01
0.000000e+00
0.000000e+00
0.000000e+00
0.000000e+00
0.000000e+00
4.823400e-02
3.506660e-02
2.232210e-02
1.000030e-02
-1.898600e-03
1.057130e-01
7.831970e-02
5.288670e-02
2.941360e-02
7.900490e-03
1.724360e-01
1.297590e-01
9.169380e-02
5.823980e-02
2.939730e-02
2.484040e-01
1.893850e-01
1.387440e-01
9.647900e-02
6.259170e-02
0.000000e+00
0.000000e+00
0.000000e+00
0.000000e+00
0.000000e+00
-1.898600e-03
-9.567870e-03
-1.361790e-02
-1.404880e-02
-1.086040e-02
7.900490e-03
-6.133750e-03
-1.364490e-02
-1.463290e-02
-9.097900e-03
2.939730e-02
1.030240e-02
-8.087630e-05
-1.752450e-03
5.287650e-03
6.259170e-02
3.974050e-02
2.707410e-02
2.459270e-02
3.229620e-02
0.000000e+00
0.000000e+00
0.000000e+00
0.000000e+00
0.000000e+00
-1.086040e-02
-9.361370e-03
-7.115490e-03
-4.122810e-03
-3.833330e-04
-9.097900e-03
-6.297230e-03
-2.437900e-03
2.480090e-03
8.456740e-03
5.287650e-03
9.192430e-03
1.403280e-02
1.980870e-02
2.652020e-02
3.229620e-02
3.710760e-02
4.229660e-02
4.786310e-02
5.380710e-02
0.000000e+00
0.000000e+00
0.000000e+00
0.000000e+00
0.000000e+00
-3.833330e-04
2.154350e-03
4.129950e-03
5.543450e-03
6.394860e-03
8.456740e-03
1.244360e-02
1.545950e-02
1.750460e-02
1.857870e-02
2.652020e-02
3.086770e-02
3.398870e-02
3.588330e-02
3.655150e-02
5.380710e-02
5.742670e-02
5.971760e-02
6.067980e-02
6.031330e-02
0.000000e+00
0.000000e+00
0.000000e+00
0.000000e+00
0.000000e+00
6.394860e-03
7.518940e-03
7.275440e-03
5.664370e-03
2.685730e-03
1.857870e-02
1.989910e-02
1.927790e-02
1.671520e-02
1.221100e-02
3.655150e-02
3.714040e-02
3.600740e-02
3.315250e-02
2.857580e-02
6.031330e-02
5.924290e-02
5.746390e-02
5.497630e-02
5.178020e-02
1.002660e-01
1.093970e-01
1.147880e-01
1.164380e-01
1.143470e-01
9.945850e-02
1.077940e-01
1.137470e-01
1.173170e-01
1.185030e-01
9.848610e-02
1.058470e-01
1.118810e-01
1.165880e-01
1.199680e-01
9.734850e-02
1.035560e-01
1.091900e-01
1.142520e-01
1.187410e-01
9.604590e-02
1.009200e-01
1.056750e-01
1.103090e-01
1.148240e-01
1.143470e-01
1.102180e-01
1.060470e-01
1.018330e-01
9.757810e-02
1.185030e-01
1.172480e-01
1.153450e-01
1.127960e-01
1.095990e-01
1.199680e-01
1.209320e-01
1.208690e-01
1.197780e-01
1.176600e-01
1.187410e-01
1.212710e-01
1.226180e-01
1.227810e-01
1.217610e-01
1.148240e-01
1.182650e-01
1.205920e-01
1.218040e-01
1.219030e-01
9.757810e-02
9.442300e-02
9.220810e-02
9.093320e-02
9.059850e-02
1.095990e-01
1.069580e-01
1.051590e-01
1.042030e-01
1.040890e-01
1.176600e-01
1.156650e-01
1.143740e-01
1.137860e-01
1.139010e-01
1.217610e-01
1.205460e-01
1.198530e-01
1.196820e-01
1.200330e-01
1.219030e-01
1.215990e-01
1.215960e-01
1.218910e-01
1.224860e-01
9.059850e-02
9.076150e-02
9.152140e-02
9.287830e-02
9.483200e-02
1.040890e-01
1.045540e-01
1.056190e-01
1.072860e-01
1.095550e-01
1.139010e-01
1.146230e-01
1.159290e-01
1.178210e-01
1.202980e-01
1.200330e-01
1.209680e-01
1.224510e-01
1.244820e-01
1.270610e-01
1.224860e-01
1.235910e-01
1.251850e-01
1.272700e-01
1.298450e-01
9.483200e-02
9.728290e-02
1.003400e-01
1.040030e-01
1.082710e-01
1.095550e-01
1.123170e-01
1.157100e-01
1.197330e-01
1.243860e-01
1.202980e-01
1.232540e-01
1.268410e-01
1.310590e-01
1.359060e-01
1.270610e-01
1.300950e-01
1.337340e-01
1.379800e-01
1.428310e-01
1.298450e-01
1.328380e-01
1.363880e-01
1.404960e-01
1.451620e-01
1.082710e-01
1.130690e-01
1.186370e-01
1.249750e-01
1.320820e-01
1.243860e-01
1.295770e-01
1.355370e-01
1.422670e-01
1.497650e-01
1.359060e-01
1.412810e-01
1.474050e-01
1.542800e-01
1.619050e-01
1.428310e-01
1.481790e-01
1.542400e-01
1.610140e-01
1.685010e-01
1.451620e-01
1.502730e-01
1.560420e-01
1.624690e-01
1.695530e-01
1.320820e-01
1.398280e-01
1.487130e-01
1.587370e-01
1.699010e-01
1.497650e-01
1.578480e-01
1.670430e-01
1.773490e-01
1.887660e-01
1.619050e-01
1.700550e-01
1.792730e-01
1.895590e-01
2.009130e-01
1.685010e-01
1.764490e-01
1.854050e-01
1.953690e-01
2.063400e-01
1.695530e-01
1.770300e-01
1.854390e-01
1.947780e-01
2.050480e-01
1.699010e-01
1.816500e-01
1.951570e-01
2.104230e-01
2.274470e-01
1.887660e-01
2.006290e-01
2.142070e-01
2.295010e-01
2.465110e-01
2.009130e-01
2.125860e-01
2.259240e-01
2.409280e-01
2.575970e-01
2.063400e-01
2.175210e-01
2.303090e-01
2.447030e-01
2.607030e-01
2.050480e-01
2.154350e-01
2.273610e-01
2.408260e-01
2.558300e-01
2.274470e-01
2.447880e-01
2.646080e-01
2.869080e-01
3.116860e-01
2.465110e-01
2.635540e-01
2.831110e-01
3.051810e-01
3.297650e-01
2.575970e-01
2.740310e-01
2.930270e-01
3.145860e-01
3.387060e-01
2.607030e-01
2.762180e-01
2.943580e-01
3.151210e-01
3.385080e-01
2.558300e-01
2.701170e-01
2.871030e-01
3.067880e-01
3.291720e-01
3.116860e-01
3.376180e-01
3.658070e-01
3.962540e-01
4.289570e-01
3.297650e-01
3.550790e-01
3.829470e-01
4.133670e-01
4.463420e-01
3.387060e-01
3.630890e-01
3.903360e-01
4.204450e-01
4.534170e-01
3.385080e-01
3.616490e-01
3.879740e-01
4.174860e-01
4.501830e-01
3.291720e-01
3.507570e-01
3.758630e-01
4.044900e-01
4.366390e-01
4.289570e-01
4.671790e-01
5.053550e-01
5.434850e-01
5.815680e-01
4.463420e-01
4.849130e-01
5.239000e-01
5.633000e-01
6.031150e-01
4.534170e-01
4.919650e-01
5.313540e-01
5.715840e-01
6.126530e-01
4.501830e-01
4.883350e-01
5.277190e-01
5.683350e-01
6.101820e-01
4.366390e-01
4.740230e-01
5.129950e-01
5.535550e-01
5.957030e-01
5.815680e-01
6.289840e-01
6.724670e-01
7.120160e-01
7.476300e-01
6.031150e-01
6.543290e-01
7.018970e-01
7.458190e-01
7.860940e-01
6.126530e-01
6.673320e-01
7.185630e-01
7.663440e-01
8.106780e-01
6.101820e-01
6.679930e-01
7.224630e-01
7.735920e-01
8.213800e-01
5.957030e-01
6.563130e-01
7.136000e-01
7.675620e-01
8.182010e-01
7.476300e-01
7.804310e-01
8.036840e-01
8.173880e-01
8.215430e-01
7.860940e-01
8.271840e-01
8.594870e-01
8.830030e-01
8.977310e-01
8.106780e-01
8.591200e-01
8.992040e-01
9.309280e-01
9.542930e-01
8.213800e-01
8.762400e-01
9.228350e-01
9.611640e-01
9.912270e-01
8.182010e-01
8.785440e-01
9.303810e-01
9.737110e-01
1.008530e+00
8.215430e-01
7.933500e-01
7.496280e-01
6.903770e-01
6.155980e-01
8.977310e-01
8.842830e-01
8.557560e-01
8.121510e-01
7.534680e-01
9.542930e-01
9.516490e-01
9.351830e-01
9.048940e-01
8.607830e-01
9.912270e-01
9.954500e-01
9.879100e-01
9.686070e-01
9.375430e-01
1.008530e+00
1.015680e+00
1.013940e+00
1.003290e+00
9.837480e-01
6.155980e-01
5.203670e-01
4.274240e-01
3.367700e-01
2.484040e-01
7.534680e-01
6.578920e-01
5.575800e-01
4.525320e-01
3.427470e-01
8.607830e-01
7.714550e-01
6.711860e-01
5.599750e-01
4.378210e-01
9.375430e-01
8.610570e-01
7.682420e-01
6.590980e-01
5.336260e-01
9.837480e-01
9.266960e-01
8.487470e-01
7.499030e-01
6.301620e-01
2.484040e-01
1.893850e-01
1.387440e-01
9.647900e-02
6.259170e-02
3.427470e-01
2.673650e-01
2.028370e-01
1.491640e-01
1.063440e-01
4.378210e-01
3.491170e-01
2.723500e-01
2.075200e-01
1.546280e-01
5.336260e-01
4.346400e-01
3.472810e-01
2.715490e-01
2.074440e-01
6.301620e-01
5.239340e-01
4.276300e-01
3.412490e-01
2.647910e-01
6.259170e-02
3.974050e-02
2.707410e-02
2.459270e-02
3.229620e-02
1.063440e-01
7.600550e-02
5.801170e-02
5.236290e-02
5.905890e-02
1.546280e-01
1.161650e-01
9.195150e-02
8.198810e-02
8.627490e-02
2.074440e-01
1.602180e-01
1.288930e-01
1.134680e-01
1.139440e-01
2.647910e-01
2.081660e-01
1.688370e-01
1.468040e-01
1.420670e-01
3.229620e-02
3.710760e-02
4.229660e-02
4.786310e-02
5.380710e-02
5.905890e-02
6.367290e-02
6.845330e-02
7.340000e-02
7.851310e-02
8.627490e-02
8.959860e-02
9.314120e-02
9.690260e-02
1.008830e-01
1.139440e-01
1.148850e-01
1.163600e-01
1.183710e-01
1.209160e-01
1.420670e-01
1.395310e-01
1.381110e-01
1.378050e-01
1.386130e-01
5.380710e-02
5.742670e-02
5.971760e-02
6.067980e-02
6.031330e-02
7.851310e-02
8.109150e-02
8.229310e-02
8.211800e-02
8.056610e-02
1.008830e-01
1.022540e-01
1.022580e-01
1.008940e-01
9.816170e-02
1.209160e-01
1.209140e-01
1.196110e-01
1.170060e-01
1.131000e-01
1.386130e-01
1.370730e-01
1.343540e-01
1.304570e-01
1.253810e-01
6.031330e-02
5.924290e-02
5.746390e-02
5.497630e-02
5.178020e-02
8.056610e-02
7.878120e-02
7.636510e-02
7.331780e-02
6.963930e-02
9.816170e-02
9.563710e-02
9.258340e-02
8.900050e-02
8.488840e-02
1.131000e-01
1.098110e-01
1.061190e-01
1.020240e-01
9.752730e-02
1.253810e-01
1.213020e-01
1.169710e-01
1.123890e-01
1.075560e-01
9.604590e-02
1.009200e-01
1.056750e-01
1.103090e-01
1.148240e-01
9.458900e-02
9.894190e-02
1.032300e-01
1.074520e-01
1.116090e-01
9.299440e-02
9.696440e-02
1.008560e-01
1.046700e-01
1.084050e-01
9.126190e-02
9.498760e-02
9.855450e-02
1.019630e-01
1.052120e-01
8.939170e-02
9.301170e-02
9.632460e-02
9.933060e-02
1.020300e-01
1.148240e-01
1.182650e-01
1.205920e-01
1.218040e-01
1.219030e-01
1.116090e-01
1.150550e-01
1.176230e-01
1.193140e-01
1.201280e-01
1.084050e-01
1.116980e-01
1.143360e-01
1.163190e-01
1.176480e-01
1.052120e-01
1.081940e-01
1.107290e-01
1.128190e-01
1.144630e-01
1.020300e-01
1.045430e-01
1.068040e-01
1.088140e-01
1.105720e-01
1.219030e-01
1.215990e-01
1.215960e-01
1.218910e-01
1.224860e-01
1.201280e-01
1.204910e-01
1.210290e-01
1.217420e-01
1.226290e-01
1.176480e-01
1.185360e-01
1.195100e-01
1.205690e-01
1.217130e-01
1.144630e-01
1.157340e-01
1.170370e-01
1.183720e-01
1.197390e-01
1.105720e-01
1.120850e-01
1.136120e-01
1.151520e-01
1.167060e-01
1.224860e-01
1.235910e-01
1.251850e-01
1.272700e-01
1.298450e-01
1.226290e-01
1.239140e-01
1.256270e-01
1.277670e-01
1.303350e-01
1.217130e-01
1.231610e-01
1.249790e-01
1.271650e-01
1.297200e-01
1.197390e-01
1.213330e-01
1.232420e-01
1.254640e-01
1.280000e-01
1.167060e-01
1.184290e-01
1.204160e-01
1.226640e-01
1.251750e-01
1.298450e-01
1.328380e-01
1.363880e-01
1.404960e-01
1.451620e-01
1.303350e-01
1.332830e-01
1.367460e-01
1.407260e-01
1.452220e-01
1.297200e-01
1.326160e-01
1.359870e-01
1.398320e-01
1.441520e-01
1.280000e-01
1.308380e-01
1.341100e-01
1.378150e-01
1.419530e-01
1.251750e-01
1.279490e-01
1.311150e-01
1.346740e-01
1.386250e-01
1.451620e-01
1.502730e-01
1.560420e-01
1.624690e-01
1.695530e-01
1.452220e-01
1.501150e-01
1.556310e-01
1.617680e-01
1.685260e-01
1.441520e-01
1.488230e-01
1.540790e-01
1.599210e-01
1.663480e-01
1.419530e-01
1.463960e-01
1.513870e-01
1.569280e-01
1.630180e-01
1.386250e-01
1.428340e-01
1.475560e-01
1.527900e-01
1.585370e-01
1.695530e-01
1.770300e-01
1.854390e-01
1.947780e-01
2.050480e-01
1.685260e-01
1.756210e-01
1.836070e-01
1.924830e-01
2.022490e-01
1.663480e-01
1.730550e-01
1.806080e-01
1.890090e-01
1.982570e-01
1.630180e-01
1.693310e-01
1.764440e-01
1.843580e-01
1.930720e-01
1.585370e-01
1.644500e-01
1.711140e-01
1.785290e-01
1.866940e-01
2.050480e-01
2.154350e-01
2.273610e-01
2.408260e-01
2.558300e-01
2.022490e-01
2.120620e-01
2.233810e-01
2.362070e-01
2.505390e-01
1.982570e-01
2.074780e-01
2.181570e-01
2.302940e-01
2.438890e-01
1.930720e-01
2.016840e-01
2.116890e-01
2.230870e-01
2.358790e-01
1.866940e-01
1.946800e-01
2.039780e-01
2.145880e-01
2.265100e-01
2.558300e-01
2.701170e-01
2.871030e-01
3.067880e-01
3.291720e-01
2.505390e-01
2.639230e-01
2.801140e-01
2.991120e-01
3.209180e-01
2.438890e-01
2.563170e-01
2.716050e-01
2.897540e-01
3.107620e-01
2.358790e-01
2.472990e-01
2.615770e-01
2.787120e-01
2.987040e-01
2.265100e-01
2.368710e-01
2.500290e-01
2.659870e-01
2.847430e-01
3.291720e-01
3.507570e-01
3.758630e-01
4.044900e-01
4.366390e-01
3.209180e-01
3.411340e-01
3.652670e-01
3.933170e-01
4.252830e-01
3.107620e-01
3.292670e-01
3.520950e-01
3.792480e-01
4.107240e-01
2.987040e-01
3.151550e-01
3.363480e-01
3.622830e-01
3.929610e-01
2.847430e-01
2.987980e-01
3.180250e-01
3.424240e-01
3.719940e-01
4.366390e-01
4.740230e-01
5.129950e-01
5.535550e-01
5.957030e-01
4.252830e-01
4.618220e-01
5.002700e-01
5.406260e-01
5.828910e-01
4.107240e-01
4.456350e-01
4.827090e-01
5.219470e-01
5.633470e-01
3.929610e-01
4.254620e-01
4.603140e-01
4.975170e-01
5.370710e-01
3.719940e-01
4.013020e-01
4.330830e-01
4.673370e-01
5.040640e-01
5.957030e-01
6.563130e-01
7.136000e-01
7.675620e-01
8.182010e-01
5.828910e-01
6.466910e-01
7.066000e-01
7.626160e-01
8.147400e-01
5.633470e-01
6.291980e-01
6.902150e-01
7.463970e-01
7.977440e-01
5.370710e-01
6.038340e-01
6.644450e-01
7.189040e-01
7.672120e-01
5.040640e-01
5.705980e-01
6.292890e-01
6.801390e-01
7.231460e-01
8.182010e-01
8.785440e-01
9.303810e-01
9.737110e-01
1.008530e+00
8.147400e-01
8.812940e-01
9.385230e-01
9.864250e-01
1.025000e+00
7.977440e-01
8.686470e-01
9.297910e-01
9.811760e-01
1.022800e+00
7.672120e-01
8.406030e-01
9.041870e-01
9.579640e-01
1.001930e+00
7.231460e-01
7.971610e-01
8.617080e-01
9.167880e-01
9.623990e-01
1.008530e+00
1.015680e+00
1.013940e+00
1.003290e+00
9.837480e-01
1.025000e+00
1.034330e+00
1.035110e+00
1.027350e+00
1.011050e+00
1.022800e+00
1.034190e+00
1.037870e+00
1.033850e+00
1.022120e+00
1.001930e+00
1.015260e+00
1.022210e+00
1.022780e+00
1.016970e+00
9.623990e-01
9.775520e-01
9.881340e-01
9.941440e-01
9.955830e-01
9.837480e-01
9.266960e-01
8.487470e-01
7.499030e-01
6.301620e-01
1.011050e+00
9.618820e-01
8.942550e-01
8.081700e-01
7.036260e-01
1.022120e+00
9.786350e-01
9.200150e-01
8.462630e-01
7.573780e-01
1.016970e+00
9.769540e-01
9.260250e-01
8.641810e-01
7.914200e-01
9.955830e-01
9.568410e-01
9.122870e-01
8.619240e-01
8.057500e-01
6.301620e-01
5.239340e-01
4.276300e-01
3.412490e-01
2.647910e-01
7.036260e-01
5.969780e-01
4.973420e-01
4.047170e-01
3.191040e-01
7.573780e-01
6.546750e-01
5.554900e-01
4.598230e-01
3.676740e-01
7.914200e-01
6.970250e-01
6.020730e-01
5.065660e-01
4.105020e-01
8.057500e-01
7.240270e-01
6.370920e-01
5.449460e-01
4.475860e-01
2.647910e-01
2.081660e-01
1.688370e-01
1.468040e-01
1.420670e-01
3.191040e-01
2.577490e-01
2.127440e-01
1.840900e-01
1.717870e-01
3.676740e-01
3.035270e-01
2.543720e-01
2.202070e-01
2.010330e-01
4.105020e-01
3.455020e-01
2.937200e-01
2.551540e-01
2.298050e-01
4.475860e-01
3.836740e-01
3.307890e-01
2.889320e-01
2.581030e-01
1.420670e-01
1.395310e-01
1.381110e-01
1.378050e-01
1.386130e-01
1.717870e-01
1.639120e-01
1.582720e-01
1.548670e-01
1.536970e-01
2.010330e-01
1.875940e-01
1.774500e-01
1.705980e-01
1.670410e-01
2.298050e-01
2.105780e-01
1.956430e-01
1.849980e-01
1.786450e-01
2.581030e-01
2.328640e-01
2.128510e-01
1.980660e-01
1.885070e-01
1.386130e-01
1.370730e-01
1.343540e-01
1.304570e-01
1.253810e-01
1.536970e-01
1.507690e-01
1.467020e-01
1.414960e-01
1.351510e-01
1.670410e-01
1.626460e-01
1.572120e-01
1.507380e-01
1.432250e-01
1.786450e-01
1.727040e-01
1.658830e-01
1.581830e-01
1.496040e-01
1.885070e-01
1.809410e-01
1.727160e-01
1.638310e-01
1.542870e-01
1.253810e-01
1.213020e-01
1.169710e-01
1.123890e-01
1.075560e-01
1.351510e-01
1.301160e-01
1.251200e-01
1.201630e-01
1.152440e-01
1.432250e-01
1.372860e-01
1.316750e-01
1.263920e-01
1.214350e-01
1.496040e-01
1.428130e-01
1.366370e-01
1.310760e-01
1.261290e-01
1.542870e-01
1.466960e-01
1.400060e-01
1.342160e-01
1.293260e-01
8.939170e-02
9.301170e-02
9.632460e-02
9.933060e-02
1.020300e-01
8.740010e-02
9.076040e-02
9.380120e-02
9.652270e-02
9.892480e-02
8.530680e-02
8.840530e-02
9.118510e-02
9.364610e-02
9.578840e-02
8.311190e-02
8.594650e-02
8.847610e-02
9.070070e-02
9.262040e-02
8.081530e-02
8.338390e-02
8.567430e-02
8.768670e-02
8.942090e-02
1.020300e-01
1.045430e-01
1.068040e-01
1.088140e-01
1.105720e-01
9.892480e-02