<?xml version="1.0"?>
<VTKFile type="UnstructuredGrid" version="0.1" byte_order="LittleEndian" compressor="vtkZLibDataCompressor">
<UnstructuredGrid>
<Piece NumberOfPoints="10000" NumberOfCells="6400">
<Points>
<DataArray type="Float32" NumberOfComponents="3" format="ascii">
-3.360000e+00 0.000000e+00 0.000000e+00
-3.276000e+00 0.000000e+00 0.000000e+00
-3.192000e+00 0.000000e+00 0.000000e+00
-3.108000e+00 0.000000e+00 0.000000e+00
-3.024000e+00 0.000000e+00 0.000000e+00
-3.360000e+00 6.412500e-02 0.000000e+00
-3.276000e+00 6.412500e-02 0.000000e+00
-3.192000e+00 6.412500e-02 0.000000e+00
-3.108000e+00 6.412500e-02 0.000000e+00
-3.024000e+00 6.412500e-02 0.000000e+00
-3.360000e+00 1.282500e-01 0.000000e+00
-3.276000e+00 1.282500e-01 0.000000e+00
-3.192000e+00 1.282500e-01 0.000000e+00
-3.108000e+00 1.282500e-01 0.000000e+00
-3.024000e+00 1.282500e-01 0.000000e+00
-3.360000e+00 1.923750e-01 0.000000e+00
-3.276000e+00 1.923750e-01 0.000000e+00
-3.192000e+00 1.923750e-01 0.000000e+00
-3.108000e+00 1.923750e-01 0.000000e+00
-3.024000e+00 1.923750e-01 0.000000e+00
-3.360000e+00 2.565000e-01 0.000000e+00
-3.276000e+00 2.565000e-01 0.000000e+00
-3.192000e+00 2.565000e-01 0.000000e+00
-3.108000e+00 2.565000e-01 0.000000e+00
-3.024000e+00 2.565000e-01 0.000000e+00
-3.024000e+00 0.000000e+00 0.000000e+00
-2.940000e+00 0.000000e+00 0.000000e+00
-2.856000e+00 0.000000e+00 0.000000e+00
-2.772000e+00 0.000000e+00 0.000000e+00
-2.688000e+00 0.000000e+00 0.000000e+00
-3.024000e+00 6.412500e-02 0.000000e+00
-2.940000e+00 6.412500e-02 0.000000e+00
-2.856000e+00 6.412500e-02 0.000000e+00
-2.772000e+00 6.412500e-02 0.000000e+00
-2.688000e+00 6.412500e-02 0.000000e+00
-3.024000e+00 1.282500e-01 0.000000e+00
-2.940000e+00 1.282500e-01 0.000000e+00
-2.856000e+00 1.282500e-01 0.000000e+00
-2.772000e+00 1.282500e-01 0.000000e+00
-2.688000e+00 1.282500e-01 0.000000e+00
-3.024000e+00 1.923750e-01 0.000000e+00
-2.940000e+00 1.923750e-01 0.000000e+00
-2.856000e+00 1.923750e-01 0.000000e+00
-2.772000e+00 1.923750e-01 0.000000e+00
-2.688000e+00 1.923750e-01 0.000000e+00
-3.024000e+00 2.565000e-01 0.000000e+00
-2.940000e+00 2.565000e-01 0.000000e+00
-2.856000e+00 2.565000e-01 0.000000e+00
-2.772000e+00 2.565000e-01 0.000000e+00
-2.688000e+00 2.565000e-01 0.000000e+00
-2.688000e+00 0.000000e+00 0.000000e+00
-2.604000e+00 0.000000e+00 0.000000e+00
-2.520000e+00 0.000000e+00 0.000000e+00
-2.436000e+00 0.000000e+00 0.000000e+00
-2.352000e+00 0.000000e+00 0.000000e+00
-2.688000e+00 6.412500e-02 0.000000e+00
-2.604000e+00 6.412500e-02 0.000000e+00
-2.520000e+00 6.412500e-02 0.000000e+00
-2.436000e+00 6.412500e-02 0.000000e+00
-2.352000e+00 6.412500e-02 0.000000e+00
-2.688000e+00 1.282500e-01 0.000000e+00
-2.604000e+00 1.282500e-01 0.000000e+00
-2.520000e+00 1.282500e-01 0.000000e+00
-2.436000e+00 1.282500e-01 0.000000e+00
-2.352000e+00 1.282500e-01 0.000000e+00
-2.688000e+00 1.923750e-01 0.000000e+00
-2.604000e+00 1.923750e-01 0.000000e+00
-2.520000e+00 1.923750e-01 0.000000e+00
-2.436000e+00 1.923750e-01 0.000000e+00
-2.352000e+00 1.923750e-01 0.000000e+00
-2.688000e+00 2.565000e-01 0.000000e+00
-2.604000e+00 2.565000e-01 0.000000e+00
-2.520000e+00 2.565000e-01 0.000000e+00
-2.436000e+00 2.565000e-01 0.000000e+00
-2.352000e+00 2.565000e-01 0.000000e+00
-2.352000e+00 0.000000e+00 0.000000e+00
-2.268000e+00 0.000000e+00 0.000000e+00
-2.184000e+00 0.000000e+00 0.000000e+00
-2.100000e+00 0.000000e+00 0.000000e+00
-2.016000e+00 0.000000e+00 0.000000e+00
-2.352000e+00 6.412500e-02 0.000000e+00
-2.268000e+00 6.412500e-02 0.000000e+00
-2.184000e+00 6.412500e-02 0.000000e+00
-2.100000e+00 6.412500e-02 0.000000e+00
-2.016000e+00 6.412500e-02 0.000000e+00
-2.352000e+00 1.282500e-01 0.000000e+00
-2.268000e+00 1.282500e-01 0.000000e+00
-2.184000e+00 1.282500e-01 0.000000e+00
-2.100000e+00 1.282500e-01 0.000000e+00
-2.016000e+00 1.282500e-01 0.000000e+00
-2.352000e+00 1.923750e-01 0.000000e+00
-2.268000e+00 1.923750e-01 0.000000e+00
-2.184000e+00 1.923750e-01 0.000000e+00
-2.100000e+00 1.923750e-01 0.000000e+00
-2.016000e+00 1.923750e-01 0.000000e+00
-2.352000e+00 2.565000e-01 0.000000e+00
-2.268000e+00 2.565000e-01 0.000000e+00
-2.184000e+00 2.565000e-01 0.000000e+00
-2.100000e+00 2.565000e-01 0.000000e+00
-2.016000e+00 2.565000e-01 0.000000e+00
-2.016000e+00 0.000000e+00 0.000000e+00
-1.932000e+00 0.000000e+00 0.000000e+00
-1.848000e+00 0.000000e+00 0.000000e+00
-1.764000e+00 0.000000e+00 0.000000e+00
-1.680000e+00 0.000000e+00 0.000000e+00
-2.016000e+00 6.412500e-02 0.000000e+00
-1.932000e+00 6.412500e-02 0.000000e+00
-1.848000e+00 6.412500e-02 0.000000e+00
-1.764000e+00 6.412500e-02 0.000000e+00
-1.680000e+00 6.412500e-02 0.000000e+00
-2.016000e+00 1.282500e-01 0.000000e+00
-1.932000e+00 1.282500e-01 0.000000e+00
-1.848000e+00 1.282500e-01 0.000000e+00
-1.764000e+00 1.282500e-01 0.000000e+00
-1.680000e+00 1.282500e-01 0.000000e+00
-2.016000e+00 1.923750e-01 0.000000e+00
-1.932000e+00 1.923750e-01 0.000000e+00
-1.848000e+00 1.923750e-01 0.000000e+00
-1.764000e+00 1.923750e-01 0.000000e+00
-1.680000e+00 1.923750e-01 0.000000e+00
-2.016000e+00 2.565000e-01 0.000000e+00
-1.932000e+00 2.565000e-01 0.000000e+00
-1.848000e+00 2.565000e-01 0.000000e+00
-1.764000e+00 2.565000e-01 0.000000e+00
-1.680000e+00 2.565000e-01 0.000000e+00
-1.680000e+00 0.000000e+00 0.000000e+00
-1.596000e+00 0.000000e+00 0.000000e+00
-1.512000e+00 0.000000e+00 0.000000e+00
-1.428000e+00 0.000000e+00 0.000000e+00
-1.344000e+00 0.000000e+00 0.000000e+00
-1.680000e+00 6.412500e-02 0.000000e+00
-1.596000e+00 6.412500e-02 0.000000e+00
-1.512000e+00 6.412500e-02 0.000000e+00
-1.428000e+00 6.412500e-02 0.000000e+00
-1.344000e+00 6.412500e-02 0.000000e+00
-1.680000e+00 1.282500e-01 0.000000e+00
-1.596000e+00 1.282500e-01 0.000000e+00
-1.512000e+00 1.282500e-01 0.000000e+00
-1.428000e+00 1.282500e-01 0.000000e+00
-1.344000e+00 1.282500e-01 0.000000e+00
-1.680000e+00 1.923750e-01 0.000000e+00
-1.596000e+00 1.923750e-01 0.000000e+00
-1.512000e+00 1.923750e-01 0.000000e+00
-1.428000e+00 1.923750e-01 0.000000e+00
-1.344000e+00 1.923750e-01 0.000000e+00
-1.680000e+00 2.565000e-01 0.000000e+00
-1.596000e+00 2.565000e-01 0.000000e+00
-1.512000e+00 2.565000e-01 0.000000e+00
-1.428000e+00 2.565000e-01 0.000000e+00
-1.344000e+00 2.565000e-01 0.000000e+00
-1.344000e+00 0.000000e+00 0.000000e+00
-1.260000e+00 0.000000e+00 0.000000e+00
-1.176000e+00 0.000000e+00 0.000000e+00
-1.092000e+00 0.000000e+00 0.000000e+00
-1.008000e+00 0.000000e+00 0.000000e+00
-1.344000e+00 6.412500e-02 0.000000e+00
-1.260000e+00 6.412500e-02 0.000000e+00
-1.176000e+00 6.412500e-02 0.000000e+00
-1.092000e+00 6.412500e-02 0.000000e+00
-1.008000e+00 6.412500e-02 0.000000e+00
-1.344000e+00 1.282500e-01 0.000000e+00
-1.260000e+00 1.282500e-01 0.000000e+00
-1.176000e+00 1.282500e-01 0.000000e+00
-1.092000e+00 1.282500e-01 0.000000e+00
-1.008000e+00 1.282500e-01 0.000000e+00
-1.344000e+00 1.923750e-01 0.000000e+00
-1.260000e+00 1.923750e-01 0.000000e+00
-1.176000e+00 1.923750e-01 0.000000e+00
-1.092000e+00 1.923750e-01 0.000000e+00
-1.008000e+00 1.923750e-01 0.000000e+00
-1.344000e+00 2.565000e-01 0.000000e+00
-1.260000e+00 2.565000e-01 0.000000e+00
-1.176000e+00 2.565000e-01 0.000000e+00
-1.092000e+00 2.565000e-01 0.000000e+00
-1.008000e+00 2.565000e-01 0.000000e+00
-1.008000e+00 0.000000e+00 0.000000e+00
-9.240000e-01 0.000000e+00 0.000000e+00
-8.400000e-01 0.000000e+00 0.000000e+00
-7.560000e-01 0.000000e+00 0.000000e+00
-6.720000e-01 0.000000e+00 0.000000e+00
-1.008000e+00 6.412500e-02 0.000000e+00
-9.240000e-01 6.412500e-02 0.000000e+00
-8.400000e-01 6.412500e-02 0.000000e+00
-7.560000e-01 6.412500e-02 0.000000e+00
-6.720000e-01 6.412500e-02 0.000000e+00
-1.008000e+00 1.282500e-01 0.000000e+00
-9.240000e-01 1.282500e-01 0.000000e+00
-8.400000e-01 1.282500e-01 0.000000e+00
-7.560000e-01 1.282500e-01 0.000000e+00
-6.720000e-01 1.282500e-01 0.000000e+00
-1.008000e+00 1.923750e-01 0.000000e+00
-9.240000e-01 1.923750e-01 0.000000e+00
-8.400000e-01 1.923750e-01 0.000000e+00
-7.560000e-01 1.923750e-01 0.000000e+00
-6.720000e-01 1.923750e-01 0.000000e+00
-1.008000e+00 2.565000e-01 0.000000e+00
-9.240000e-01 2.565000e-01 0.000000e+00
-8.400000e-01 2.565000e-01 0.000000e+00
-7.560000e-01 2.565000e-01 0.000000e+00
-6.720000e-01 2.565000e-01 0.000000e+00
-6.720000e-01 0.000000e+00 0.000000e+00
-5.880000e-01 0.000000e+00 0.000000e+00
-5.040000e-01 0.000000e+00 0.000000e+00
-4.200000e-01 0.000000e+00 0.000000e+00
-3.360000e-01 0.000000e+00 0.000000e+00
-6.720000e-01 6.412500e-02 0.000000e+00
-5.880000e-01 6.412500e-02 0.000000e+00
-5.040000e-01 6.412500e-02 0.000000e+00
-4.200000e-01 6.412500e-02 0.000000e+00
-3.360000e-01 6.412500e-02 0.000000e+00
-6.720000e-01 1.282500e-01 0.000000e+00
-5.880000e-01 1.282500e-01 0.000000e+00
-5.040000e-01 1.282500e-01 0.000000e+00
-4.200000e-01 1.282500e-01 0.000000e+00
-3.360000e-01 1.282500e-01 0.000000e+00
-6.720000e-01 1.923750e-01 0.000000e+00
-5.880000e-01 1.923750e-01 0.000000e+00
-5.040000e-01 1.923750e-01 0.000000e+00
-4.200000e-01 1.923750e-01 0.000000e+00
-3.360000e-01 1.923750e-01 0.000000e+00
-6.720000e-01 2.565000e-01 0.000000e+00
-5.880000e-01 2.565000e-01 0.000000e+00
-5.040000e-01 2.565000e-01 0.000000e+00
-4.200000e-01 2.565000e-01 0.000000e+00
-3.360000e-01 2.565000e-01 0.000000e+00
-3.360000e-01 0.000000e+00 0.000000e+00
-2.520000e-01 0.000000e+00 0.000000e+00
-1.680000e-01 0.000000e+00 0.000000e+00
-8.400000e-02 0.000000e+00 0.000000e+00
-4.440890e-16 0.000000e+00 0.000000e+00
-3.360000e-01 6.412500e-02 0.000000e+00
-2.520000e-01 6.412500e-02 0.000000e+00
-1.680000e-01 6.412500e-02 0.000000e+00
-8.400000e-02 6.412500e-02 0.000000e+00
-4.440890e-16 6.412500e-02 0.000000e+00
-3.360000e-01 1.282500e-01 0.000000e+00
-2.520000e-01 1.282500e-01 0.000000e+00
-1.680000e-01 1.282500e-01 0.000000e+00
-8.400000e-02 1.282500e-01 0.000000e+00
-4.440890e-16 1.282500e-01 0.000000e+00
-3.360000e-01 1.923750e-01 0.000000e+00
-2.520000e-01 1.923750e-01 0.000000e+00
-1.680000e-01 1.923750e-01 0.000000e+00
[...]
<PointData>
<DataArray type="Float32" Name="V1" format="ascii">
0.000000e+00
0.000000e+00
0.000000e+00
0.000000e+00
0.000000e+00
6.347820e-02
6.294170e-02
6.357940e-02
6.539120e-02
6.837720e-02
1.013490e-01
1.023820e-01
1.046230e-01
1.080720e-01
1.127300e-01
1.136110e-01
1.183200e-01
1.231310e-01
1.280430e-01
1.330570e-01
1.002660e-01
1.107570e-01
1.191020e-01
1.253040e-01
1.293600e-01
0.000000e+00
0.000000e+00
0.000000e+00
0.000000e+00
0.000000e+00
6.837720e-02
6.991350e-02
7.245690e-02
7.600740e-02
8.056510e-02
1.127300e-01
1.160190e-01
1.206450e-01
1.266080e-01
1.339090e-01
1.330570e-01
1.383160e-01
1.445650e-01
1.518030e-01
1.600300e-01
1.293600e-01
1.368050e-01
1.442160e-01
1.515910e-01
1.589300e-01
0.000000e+00
0.000000e+00
0.000000e+00
0.000000e+00
0.000000e+00
8.056510e-02
8.462960e-02
8.925640e-02
9.444550e-02
1.001970e-01
1.339090e-01
1.407030e-01
1.484170e-01
1.570490e-01
1.666010e-01
1.600300e-01
1.682200e-01
1.774810e-01
1.878120e-01
1.992130e-01
1.589300e-01
1.671810e-01
1.764490e-01
1.867330e-01
1.980330e-01
0.000000e+00
0.000000e+00
0.000000e+00
0.000000e+00
0.000000e+00
1.001970e-01
1.060590e-01
1.127980e-01
1.204120e-01
1.289030e-01
1.666010e-01
1.763530e-01
1.875290e-01
2.001300e-01
2.141540e-01
1.992130e-01
2.108810e-01
2.241940e-01
2.391520e-01
2.557550e-01
1.980330e-01
2.096440e-01
2.227920e-01
2.374790e-01
2.537050e-01
0.000000e+00
0.000000e+00
0.000000e+00
0.000000e+00
0.000000e+00
1.289030e-01
1.373040e-01
1.472430e-01
1.587190e-01
1.717320e-01
2.141540e-01
2.280760e-01
2.444870e-01
2.633860e-01
2.847750e-01
2.557550e-01
2.723160e-01
2.917320e-01
3.140020e-01
3.391260e-01
2.537050e-01
2.700250e-01
2.889790e-01
3.105670e-01
3.347880e-01
0.000000e+00
0.000000e+00
0.000000e+00
0.000000e+00
0.000000e+00
1.717320e-01
1.839130e-01
1.988590e-01
2.165710e-01
2.370500e-01
2.847750e-01
3.049300e-01
3.295160e-01
3.585320e-01
3.919790e-01
3.391260e-01
3.630520e-01
3.919710e-01
4.258840e-01
4.647890e-01
3.347880e-01
3.582790e-01
3.862250e-01
4.186250e-01
4.554790e-01
0.000000e+00
0.000000e+00
0.000000e+00
0.000000e+00
0.000000e+00
2.370500e-01
2.556920e-01
2.784180e-01
3.052260e-01
3.361180e-01
3.919790e-01
4.227770e-01
4.600520e-01
5.038020e-01
5.540290e-01
4.647890e-01
5.012560e-01
5.449020e-01
5.957280e-01
6.537330e-01
4.554790e-01
4.911280e-01
5.329700e-01
5.810040e-01
6.352310e-01
0.000000e+00
0.000000e+00
0.000000e+00
0.000000e+00
0.000000e+00
3.361180e-01
3.669760e-01
4.004940e-01
4.366740e-01
4.755140e-01
5.540290e-01
6.049020e-01
6.599760e-01
7.192490e-01
7.827230e-01
6.537330e-01
7.137810e-01
7.784450e-01
8.477280e-01
9.216270e-01
6.352310e-01
6.936100e-01
7.559020e-01
8.221080e-01
8.922270e-01
0.000000e+00
0.000000e+00
0.000000e+00
0.000000e+00
0.000000e+00
4.755140e-01
5.234250e-01
5.659360e-01
6.030490e-01
6.347620e-01
7.827230e-01
8.619800e-01
9.328540e-01
9.953440e-01
1.049450e+00
9.216270e-01
1.015670e+00
1.100750e+00
1.176890e+00
1.244070e+00
8.922270e-01
9.844840e-01
1.069630e+00
1.147680e+00
1.218610e+00
0.000000e+00
0.000000e+00
0.000000e+00
0.000000e+00
0.000000e+00
6.347620e-01
6.792380e-01
7.100030e-01
7.270570e-01
7.304000e-01
1.049450e+00
1.124320e+00
1.177550e+00
1.209140e+00
1.219100e+00
1.244070e+00
1.335250e+00
1.402640e+00
1.446260e+00
1.466090e+00
1.218610e+00
1.312020e+00
1.385280e+00
1.438400e+00
1.471370e+00
0.000000e+00
0.000000e+00
0.000000e+00
0.000000e+00
0.000000e+00
7.304000e-01
7.241960e-01
7.103880e-01
6.889740e-01
6.599550e-01
1.219100e+00
1.209730e+00
1.187650e+00
1.152830e+00
1.105290e+00
1.466090e+00
1.456610e+00
1.431780e+00
1.391580e+00
1.336020e+00
1.471370e+00
1.464840e+00
1.442780e+00
1.405210e+00
1.352130e+00
0.000000e+00
0.000000e+00
0.000000e+00
0.000000e+00
0.000000e+00
6.599550e-01
6.124060e-01
5.681550e-01
5.272030e-01
4.895490e-01
1.105290e+00
1.025590e+00
9.508990e-01
8.812280e-01
8.165750e-01
1.336020e+00
1.239550e+00
1.148230e+00
1.062080e+00
9.810790e-01
1.352130e+00
1.254280e+00
1.160150e+00
1.069750e+00
9.830610e-01
0.000000e+00
0.000000e+00
0.000000e+00
0.000000e+00
0.000000e+00
4.895490e-01
4.467550e-01
4.079620e-01
3.731700e-01
3.423780e-01
8.165750e-01
7.455060e-01
6.807320e-01
6.222530e-01
5.700680e-01
9.810790e-01
8.962540e-01
8.183100e-01
7.472490e-01
6.830700e-01
9.830610e-01
8.989970e-01
8.206970e-01
7.481590e-01
6.813840e-01
0.000000e+00
0.000000e+00
0.000000e+00
0.000000e+00
0.000000e+00
3.423780e-01
3.136190e-01
2.872670e-01
2.633230e-01
2.417880e-01
5.700680e-01
5.223250e-01
4.784890e-01
4.385620e-01
4.025440e-01
6.830700e-01
6.261180e-01
5.736670e-01
5.257170e-01
4.822690e-01
6.813840e-01
6.249990e-01
5.728000e-01
5.247880e-01
4.809630e-01
0.000000e+00
0.000000e+00
0.000000e+00
0.000000e+00
0.000000e+00
2.417880e-01
2.227890e-01
2.053720e-01
1.895360e-01
1.752800e-01
4.025440e-01
3.709510e-01
3.419880e-01
3.156560e-01
2.919550e-01
4.822690e-01
4.444850e-01
4.098490e-01
3.783620e-01
3.500230e-01
4.809630e-01
4.433900e-01
4.089530e-01
3.776520e-01
3.494860e-01
0.000000e+00
0.000000e+00
0.000000e+00
0.000000e+00
0.000000e+00
1.752800e-01
1.626540e-01
1.510410e-01
1.404400e-01
1.308510e-01
2.919550e-01
2.709550e-01
2.516500e-01
2.340390e-01
2.181230e-01
3.500230e-01
3.249020e-01
3.018270e-01
2.807980e-01
2.618150e-01
3.494860e-01
3.244950e-01
3.015720e-01
2.807160e-01
2.619270e-01
0.000000e+00
0.000000e+00
0.000000e+00
0.000000e+00
0.000000e+00
1.308510e-01
1.222950e-01
1.143550e-01
1.070310e-01
1.003240e-01
2.181230e-01
2.038830e-01
1.906840e-01
1.785250e-01
1.674070e-01
2.618150e-01
2.447640e-01
2.289870e-01
2.144820e-01
2.012490e-01
2.619270e-01
2.449390e-01
2.292630e-01
2.149000e-01
2.018510e-01
0.000000e+00
0.000000e+00
0.000000e+00
0.000000e+00
0.000000e+00
1.003240e-01
9.435740e-02
8.873230e-02
8.344840e-02
7.850570e-02
1.674070e-01
1.574680e-01
1.481220e-01
1.393680e-01
1.312080e-01
2.012490e-01
1.893310e-01
1.781680e-01
1.677590e-01
1.581050e-01
2.018510e-01
1.899470e-01
1.788710e-01
1.686210e-01
1.591990e-01
0.000000e+00
0.000000e+00
0.000000e+00
0.000000e+00
0.000000e+00
7.850570e-02
7.433470e-02
7.016870e-02
6.600770e-02
6.185170e-02
1.312080e-01
1.241910e-01
1.172860e-01
1.104920e-01
1.038090e-01
1.581050e-01
1.495700e-01
1.413530e-01
1.334540e-01
1.258730e-01
1.591990e-01
1.504700e-01
1.423680e-01
1.348920e-01
1.280420e-01
0.000000e+00
0.000000e+00
0.000000e+00
0.000000e+00
0.000000e+00
6.185170e-02
5.894800e-02
5.554480e-02
5.164190e-02
4.723940e-02
1.038090e-01
9.874910e-02
9.320220e-02
8.716850e-02
8.064810e-02
1.258730e-01
1.194030e-01
1.129720e-01
1.065800e-01
1.002260e-01
1.280420e-01
1.209110e-01
1.148550e-01
1.098760e-01
1.059730e-01
1.002660e-01
1.107570e-01
1.191020e-01
1.253040e-01
1.293600e-01
9.945850e-02
1.056800e-01
1.114470e-01
1.167590e-01
1.216180e-01
9.848610e-02
1.023690e-01
1.067060e-01
1.114950e-01
1.167390e-01
9.734850e-02
1.008250e-01
1.048790e-01
1.095120e-01
1.147220e-01
9.604590e-02
1.010470e-01
1.059670e-01
1.108080e-01
1.155690e-01
1.293600e-01
1.368050e-01
1.442160e-01
1.515910e-01
1.589300e-01
1.216180e-01
1.278870e-01
1.344040e-01
1.411690e-01
1.481810e-01
1.167390e-01
1.222980e-01
1.282680e-01
1.346480e-01
1.414380e-01
1.147220e-01
1.200380e-01
1.258060e-01
1.320280e-01
1.387010e-01
1.155690e-01
1.211070e-01
1.270200e-01
1.333080e-01
1.399710e-01
1.589300e-01
1.671810e-01
1.764490e-01
1.867330e-01
1.980330e-01
1.481810e-01
1.557580e-01
1.642830e-01
1.737540e-01
1.841730e-01
1.414380e-01
1.485890e-01
1.566230e-01
1.655410e-01
1.753440e-01
1.387010e-01
1.456720e-01
1.534700e-01
1.620940e-01
1.715460e-01
1.399710e-01
1.470080e-01
1.548230e-01
1.634130e-01
1.727800e-01
1.980330e-01
2.096440e-01
2.227920e-01
2.374790e-01
2.537050e-01
1.841730e-01
1.948020e-01
2.068880e-01
2.204300e-01
2.354280e-01
1.753440e-01
1.852920e-01
1.966310e-01
2.093590e-01
2.234780e-01
1.715460e-01
1.811140e-01
1.920210e-01
2.042680e-01
2.178540e-01
1.727800e-01
1.822670e-01
1.930590e-01
2.051550e-01
2.185560e-01
2.537050e-01
2.700250e-01
2.889790e-01
3.105670e-01
3.347880e-01
2.354280e-01
2.503470e-01
2.677790e-01
2.877240e-01
3.101820e-01
2.234780e-01
2.373910e-01
2.537120e-01
2.724400e-01
2.935760e-01
2.178540e-01
2.311580e-01
2.467780e-01
2.647160e-01
2.849700e-01
2.185560e-01
2.316460e-01
2.469780e-01
2.645500e-01
2.843640e-01
3.347880e-01
3.582790e-01
3.862250e-01
4.186250e-01
4.554790e-01
3.101820e-01
3.315730e-01
3.573540e-01
3.875260e-01
4.220880e-01
2.935760e-01
3.134050e-01
3.375490e-01
3.660070e-01
3.987800e-01
2.849700e-01
3.037750e-01
3.268080e-01
3.540680e-01
3.855560e-01
2.843640e-01
3.026840e-01
3.251330e-01
3.517100e-01
3.824150e-01
4.554790e-01
4.911280e-01
5.329700e-01
5.810040e-01
6.352310e-01
4.220880e-01
4.545300e-01
4.935820e-01
5.392430e-01
5.915130e-01
3.987800e-01
4.287130e-01
4.655960e-01
5.094290e-01
5.602130e-01
3.855560e-01
4.136750e-01
4.490100e-01
4.915620e-01
5.413300e-01
3.824150e-01
4.094170e-01
4.438250e-01
4.856410e-01
5.348640e-01
6.352310e-01
6.936100e-01
7.559020e-01
8.221080e-01
8.922270e-01
5.915130e-01
6.466410e-01
7.067710e-01
7.719030e-01
8.420370e-01
5.602130e-01
6.127250e-01
6.713270e-01
7.360200e-01
8.068040e-01
5.413300e-01
5.918610e-01
6.495700e-01
7.144590e-01
7.865260e-01
5.348640e-01
5.840490e-01
6.415000e-01
7.072190e-01
7.812040e-01
8.922270e-01
9.844840e-01
1.069630e+00
1.147680e+00
1.218610e+00
8.420370e-01
9.365180e-01
1.024350e+00
1.105540e+00
1.180080e+00
8.068040e-01
9.047850e-01
9.968270e-01
1.082930e+00
1.163090e+00
7.865260e-01
8.892860e-01
9.870590e-01
1.079850e+00
1.167650e+00
7.812040e-01
8.900200e-01
9.950480e-01
1.096290e+00
1.193740e+00
1.218610e+00
1.312020e+00
1.385280e+00
1.438400e+00
1.471370e+00
1.180080e+00
1.284150e+00
1.364850e+00
1.422200e+00
1.456190e+00
1.163090e+00
1.282560e+00
1.375170e+00
1.440920e+00
1.479810e+00
1.167650e+00
1.307260e+00
1.416230e+00
1.494560e+00
1.542240e+00
1.193740e+00
1.358250e+00
1.488040e+00
1.583110e+00
1.643470e+00
1.471370e+00
1.464840e+00
1.442780e+00
1.405210e+00
1.352130e+00
1.456190e+00
1.442500e+00
1.412600e+00
1.366490e+00
1.304180e+00
1.479810e+00
1.459510e+00
1.421510e+00
1.365820e+00
1.292440e+00
1.542240e+00
1.515860e+00
1.469520e+00
1.403210e+00
1.316920e+00
1.643470e+00
1.611570e+00
1.556620e+00
1.478640e+00
1.377610e+00
1.352130e+00
1.254280e+00
1.160150e+00
1.069750e+00
9.830610e-01
1.304180e+00
1.193920e+00
1.091910e+00
9.981360e-01
9.126100e-01
1.292440e+00
1.165220e+00
1.051330e+00
9.507860e-01
8.635810e-01
1.316920e+00
1.168170e+00
1.038430e+00
9.276970e-01
8.359730e-01
1.377610e+00
1.202780e+00
1.053200e+00
9.288670e-01
8.297870e-01
9.830610e-01
8.989970e-01
8.206970e-01
7.481590e-01
6.813840e-01
9.126100e-01
8.327020e-01
7.583220e-01
6.894700e-01
6.261470e-01
8.635810e-01
7.864400e-01
7.145610e-01
6.479430e-01
5.865860e-01
8.359730e-01
7.602140e-01
6.894150e-01
6.235780e-01
5.627020e-01
8.297870e-01
7.540210e-01
6.828840e-01
6.163740e-01
5.544940e-01
6.813840e-01
6.249990e-01
5.728000e-01
5.247880e-01
4.809630e-01
6.261470e-01
5.745180e-01
5.266280e-01
4.824790e-01
4.420700e-01
5.865860e-01
5.386790e-01
4.940900e-01
4.528190e-01
4.148650e-01
5.627020e-01
5.174840e-01
4.751860e-01
4.358080e-01
3.993500e-01
5.544940e-01
5.109310e-01
4.699150e-01
4.314460e-01
3.955230e-01
4.809630e-01
4.433900e-01
4.089530e-01
3.776520e-01
3.494860e-01
4.420700e-01
4.078110e-01
3.763940e-01
3.478170e-01
3.220810e-01
4.148650e-01
3.831300e-01
3.539900e-01
3.274460e-01
3.034970e-01
3.993500e-01
3.693450e-01
3.417410e-01
3.165370e-01
2.937340e-01
3.955230e-01
3.664580e-01
3.396480e-01
3.150920e-01
2.927910e-01
3.494860e-01
3.244950e-01
3.015720e-01
2.807160e-01
2.619270e-01
3.220810e-01
2.992810e-01
2.783470e-01
2.592800e-01
2.420800e-01
3.034970e-01
2.823240e-01
2.628580e-01
2.450990e-01
2.290470e-01
2.937340e-01
2.736240e-01
2.551040e-01
2.381730e-01
2.228300e-01
2.927910e-01
2.731820e-01
2.550850e-01
2.385010e-01
2.234290e-01
2.619270e-01
2.449390e-01
2.292630e-01
2.149000e-01
2.018510e-01
2.420800e-01
2.265150e-01
2.121410e-01
1.989560e-01
1.869610e-01
2.290470e-01
2.145080e-01
2.010660e-01
1.887230e-01
1.774780e-01
2.228300e-01
2.089150e-01
1.960380e-01
1.842000e-01
1.734010e-01
2.234290e-01
2.097370e-01
1.970570e-01
1.853890e-01
1.747310e-01
2.018510e-01
1.899470e-01
1.788710e-01
1.686210e-01
1.591990e-01
1.869610e-01
1.760080e-01
1.658040e-01
1.563480e-01
1.476410e-01
1.774780e-01
1.671860e-01
1.575910e-01
1.486940e-01
1.404950e-01
1.734010e-01
1.634810e-01
1.542340e-01
1.456600e-01
1.377590e-01
1.747310e-01
1.648930e-01
1.557300e-01
1.472440e-01
1.394340e-01
1.591990e-01
1.504700e-01
1.423680e-01
1.348920e-01
1.280420e-01
1.476410e-01
1.396060e-01
1.321070e-01
1.251460e-01
1.187220e-01
1.404950e-01
1.329250e-01
1.258440e-01
1.192500e-01
1.131430e-01
1.377590e-01
1.304300e-01
1.235780e-01
1.172030e-01
1.113060e-01
1.394340e-01
1.321180e-01
1.253090e-01
1.190070e-01
1.132120e-01
1.280420e-01
1.209110e-01
1.148550e-01
1.098760e-01
1.059730e-01
1.187220e-01
1.123160e-01
1.066690e-01
1.017810e-01
9.765260e-02
1.131430e-01
1.072520e-01
1.018950e-01
9.707000e-02
9.277820e-02
1.113060e-01
1.057210e-01
1.005330e-01
9.574240e-02
9.135010e-02
1.132120e-01
1.077200e-01
1.025830e-01
9.779850e-02
9.336830e-02
9.604590e-02
1.010470e-01
1.059670e-01
1.108080e-01
1.155690e-01
9.458900e-02
9.890080e-02
1.033550e-01
1.079530e-01
1.126930e-01
9.299440e-02
9.686730e-02
1.010000e-01
1.053930e-01
1.100450e-01
9.126190e-02
9.494620e-02
9.890160e-02
1.031280e-01
1.076260e-01
8.939170e-02
9.313760e-02
9.705990e-02
1.011590e-01
1.054340e-01
1.155690e-01
1.211070e-01
1.270200e-01
1.333080e-01
1.399710e-01
1.126930e-01
1.179000e-01
1.235070e-01
1.295160e-01
1.359250e-01
1.100450e-01
1.149760e-01
1.203140e-01
1.260580e-01
1.322100e-01
1.076260e-01
1.123370e-01
1.174400e-01
1.229360e-01
1.288240e-01
1.054340e-01
1.099810e-01
1.148860e-01
1.201480e-01
1.257670e-01
1.399710e-01
1.470080e-01
1.548230e-01
1.634130e-01
1.727800e-01
1.359250e-01
1.426160e-01
1.500380e-01
1.581920e-01
1.670780e-01
1.322100e-01
1.385680e-01
1.456130e-01
1.533450e-01
1.617630e-01
1.288240e-01
1.348660e-01
1.415500e-01
1.488730e-01
1.568370e-01
1.257670e-01
1.315100e-01
1.378460e-01
1.447760e-01
1.522990e-01
1.727800e-01
1.822670e-01
1.930590e-01
2.051550e-01
2.185560e-01
1.670780e-01
1.760190e-01
1.861830e-01
1.975690e-01
2.101770e-01
1.617630e-01
1.701760e-01
1.797270e-01
1.904150e-01
2.022420e-01
1.568370e-01
1.647380e-01
1.736900e-01
1.836940e-01
1.947500e-01
1.522990e-01
1.597050e-01
1.680740e-01
1.774060e-01
1.877010e-01
2.185560e-01
2.316460e-01
2.469780e-01
2.645500e-01
2.843640e-01
2.101770e-01
2.223670e-01
2.366690e-01
2.530840e-01
2.716110e-01
2.022420e-01
2.135480e-01
2.268310e-01
2.420880e-01
2.593220e-01
1.947500e-01
2.051910e-01
2.174620e-01
2.315640e-01
2.474960e-01
1.877010e-01
1.972950e-01
2.085640e-01
2.215110e-01
2.361350e-01
2.843640e-01
3.026840e-01
3.251330e-01
3.517100e-01
3.824150e-01
2.716110e-01
2.883770e-01
3.091480e-01
3.339250e-01
3.627070e-01
2.593220e-01
2.745470e-01
2.936150e-01
3.165270e-01
3.432820e-01
2.474960e-01
2.611940e-01
2.785340e-01
2.995160e-01
3.241400e-01
2.361350e-01
2.483190e-01
2.639040e-01
2.828920e-01
3.052810e-01
3.824150e-01
4.094170e-01
4.438250e-01
4.856410e-01
5.348640e-01
3.627070e-01
3.865260e-01
4.183020e-01
4.580330e-01
5.057200e-01
3.432820e-01
3.638910e-01
3.928390e-01
4.301270e-01
4.757540e-01
3.241400e-01
3.415100e-01
3.674370e-01
4.019230e-01
4.449670e-01
3.052810e-01
3.193830e-01
3.420970e-01
3.734220e-01
4.133590e-01
5.348640e-01
5.840490e-01
6.415000e-01
7.072190e-01
7.812040e-01
5.057200e-01
5.486860e-01
6.029530e-01
6.685230e-01
7.453940e-01
4.757540e-01
5.118590e-01
5.618850e-01
6.258340e-01
7.037060e-01
4.449670e-01
4.735670e-01
5.182960e-01
5.791530e-01
6.561390e-01
4.133590e-01
4.338120e-01
4.721860e-01
5.284790e-01
6.026930e-01
7.812040e-01
8.900200e-01
9.950480e-01
1.096290e+00
1.193740e+00
7.453940e-01
8.593610e-01
9.694570e-01
1.075680e+00
1.178030e+00
7.037060e-01
8.180040e-01
9.273220e-01
1.031660e+00
1.131020e+00
6.561390e-01
7.659480e-01
8.686440e-01
9.642280e-01
1.052700e+00
6.026930e-01
7.031940e-01
7.934230e-01
8.733820e-01
9.430710e-01
1.193740e+00
1.358250e+00
1.488040e+00
1.583110e+00
1.643470e+00
1.178030e+00
1.379310e+00
1.537790e+00
1.653460e+00
1.726330e+00
1.131020e+00
1.357140e+00
1.534160e+00
1.662080e+00
1.740890e+00
1.052700e+00
1.291740e+00
1.477160e+00
1.608950e+00
1.687130e+00
9.430710e-01
1.183100e+00
1.366780e+00
1.494100e+00
1.565060e+00
1.643470e+00
1.611570e+00
1.556620e+00
1.478640e+00
1.377610e+00
1.726330e+00
1.666320e+00
1.589790e+00
1.496740e+00
1.387160e+00
1.740890e+00
1.660090e+00
1.570390e+00
1.471790e+00
1.364270e+00
1.687130e+00
1.592880e+00
1.498440e+00
1.403790e+00
1.308950e+00
1.565060e+00
1.464690e+00
1.373920e+00
1.292750e+00
1.221190e+00
1.377610e+00
1.202780e+00
1.053200e+00
9.288670e-01
8.297870e-01
1.387160e+00
1.191070e+00
1.025060e+00
8.891270e-01
7.832810e-01
1.364270e+00
1.153150e+00
9.765070e-01
8.343380e-01
7.266440e-01
1.308950e+00
1.089040e+00
9.075550e-01
7.645020e-01
6.598780e-01
1.221190e+00
9.987210e-01
8.181970e-01
6.796170e-01
5.829810e-01
8.297870e-01
7.540210e-01
6.828840e-01
6.163740e-01
5.544940e-01
7.832810e-01
7.146750e-01
6.482810e-01
5.840990e-01
5.221280e-01
7.266440e-01
6.685060e-01
6.093000e-01
5.490280e-01
4.876890e-01
6.598780e-01
6.155120e-01
5.659410e-01
5.111620e-01
4.511770e-01
5.829810e-01
5.556960e-01
5.182030e-01
4.705010e-01
4.125920e-01
5.544940e-01
5.109310e-01
4.699150e-01
4.314460e-01
3.955230e-01
5.221280e-01
4.820540e-01
4.441030e-01
4.082760e-01
3.745730e-01
4.876890e-01
4.518370e-01
4.175070e-01
3.847000e-01
3.534160e-01
4.511770e-01
4.202800e-01
3.901260e-01
3.607160e-01
3.320500e-01
4.125920e-01
3.873830e-01
3.619610e-01
3.363250e-01
3.104750e-01
3.955230e-01
3.664580e-01
3.396480e-01
3.150920e-01
2.927910e-01
3.745730e-01
3.478440e-01
3.230830e-01
3.002900e-01
2.794650e-01
3.534160e-01
3.291970e-01
3.066180e-01
2.856760e-01
2.663730e-01
3.320500e-01
3.105180e-01
2.902510e-01
2.712500e-01
2.535150e-01
3.104750e-01
2.918050e-01
2.739840e-01
2.570130e-01
2.408910e-01
2.927910e-01
2.731820e-01
2.550850e-01
2.385010e-01
2.234290e-01
2.794650e-01
2.612630e-01
2.444130e-01
2.289150e-01
2.147690e-01
2.663730e-01
2.496180e-01
2.340440e-01
2.196510e-01
2.064400e-01
2.535150e-01
2.382480e-01
2.239800e-01
2.107110e-01
1.984420e-01
2.408910e-01
2.271510e-01
2.142190e-01
2.020930e-01
1.907750e-01
2.234290e-01
2.097370e-01
1.970570e-01
1.853890e-01
1.747310e-01
2.147690e-01
2.019230e-01
1.900000e-01
1.790020e-01
1.689280e-01
2.064400e-01
1.944450e-01
1.832840e-01
1.729570e-01
1.634640e-01
1.984420e-01
1.873050e-01
1.769090e-01
1.672540e-01
1.583390e-01
1.907750e-01
1.805030e-01
1.708750e-01
1.618920e-01
1.535540e-01
1.747310e-01
1.648930e-01
1.557300e-01
1.472440e-01
1.394340e-01
1.689280e-01
1.596080e-01
1.509190e-01
1.428610e-01
1.354340e-01
1.634640e-01
1.546590e-01
1.464390e-01
1.388060e-01
1.317580e-01
1.583390e-01
1.500460e-01
1.422920e-01
1.350780e-01
1.284040e-01
1.535540e-01
1.457690e-01
1.384770e-01
1.316790e-01
1.253740e-01
1.394340e-01
1.321180e-01
1.253090e-01
1.190070e-01
1.132120e-01
1.354340e-01
1.284600e-01
1.219610e-01
1.159380e-01
1.103890e-01
1.317580e-01
1.251180e-01
1.189240e-01
1.131750e-01
1.078730e-01
1.284040e-01
1.220910e-01
1.161970e-01
1.107200e-01
1.056620e-01
1.253740e-01
1.193810e-01
1.137800e-01
1.085720e-01
1.037560e-01
1.132120e-01
1.077200e-01
1.025830e-01
9.779850e-02
9.336830e-02
1.103890e-01
1.051300e-01
1.001980e-01
9.559180e-02
9.131180e-02
1.078730e-01
1.028300e-01
9.809980e-02
9.368040e-02
8.957240e-02
1.056620e-01
1.008200e-01
9.628790e-02
9.206440e-02
8.814980e-02
1.037560e-01
9.909990e-02
9.476240e-02
9.074390e-02
8.704420e-02
8.939170e-02
9.313760e-02
9.705990e-02
1.011590e-01
1.054340e-01
8.740010e-02
9.091260e-02
9.461900e-02
9.851930e-02
1.026130e-01
8.530680e-02
8.861390e-02
9.211780e-02
9.581850e-02
9.971590e-02
8.311190e-02
8.624150e-02
8.955630e-02
9.305630e-02
9.674170e-02
8.081530e-02
8.379520e-02
8.693440e-02
9.023290e-02
9.369070e-02
1.054340e-01
1.099810e-01
1.148860e-01
1.201480e-01
1.257670e-01
1.026130e-01
1.069040e-01
1.115320e-01