<?xml version="1.0"?>
<VTKFile type="UnstructuredGrid" version="0.1" byte_order="LittleEndian" compressor="vtkZLibDataCompressor">
<UnstructuredGrid>
<Piece NumberOfPoints="10000" NumberOfCells="6400">
<Points>
<DataArray type="Float32" NumberOfComponents="3" format="ascii">
-3.360000e+00 0.000000e+00 0.000000e+00
-3.276000e+00 0.000000e+00 0.000000e+00
-3.192000e+00 0.000000e+00 0.000000e+00
-3.108000e+00 0.000000e+00 0.000000e+00
-3.024000e+00 0.000000e+00 0.000000e+00
-3.360000e+00 6.412500e-02 0.000000e+00
-3.276000e+00 6.412500e-02 0.000000e+00
-3.192000e+00 6.412500e-02 0.000000e+00
-3.108000e+00 6.412500e-02 0.000000e+00
-3.024000e+00 6.412500e-02 0.000000e+00
-3.360000e+00 1.282500e-01 0.000000e+00
-3.276000e+00 1.282500e-01 0.000000e+00
-3.192000e+00 1.282500e-01 0.000000e+00
-3.108000e+00 1.282500e-01 0.000000e+00
-3.024000e+00 1.282500e-01 0.000000e+00
-3.360000e+00 1.923750e-01 0.000000e+00
-3.276000e+00 1.923750e-01 0.000000e+00
-3.192000e+00 1.923750e-01 0.000000e+00
-3.108000e+00 1.923750e-01 0.000000e+00
-3.024000e+00 1.923750e-01 0.000000e+00
-3.360000e+00 2.565000e-01 0.000000e+00
-3.276000e+00 2.565000e-01 0.000000e+00
-3.192000e+00 2.565000e-01 0.000000e+00
-3.108000e+00 2.565000e-01 0.000000e+00
-3.024000e+00 2.565000e-01 0.000000e+00
-3.024000e+00 0.000000e+00 0.000000e+00
-2.940000e+00 0.000000e+00 0.000000e+00
-2.856000e+00 0.000000e+00 0.000000e+00
-2.772000e+00 0.000000e+00 0.000000e+00
-2.688000e+00 0.000000e+00 0.000000e+00
-3.024000e+00 6.412500e-02 0.000000e+00
-2.940000e+00 6.412500e-02 0.000000e+00
-2.856000e+00 6.412500e-02 0.000000e+00
-2.772000e+00 6.412500e-02 0.000000e+00
-2.688000e+00 6.412500e-02 0.000000e+00
-3.024000e+00 1.282500e-01 0.000000e+00
-2.940000e+00 1.282500e-01 0.000000e+00
-2.856000e+00 1.282500e-01 0.000000e+00
-2.772000e+00 1.282500e-01 0.000000e+00
-2.688000e+00 1.282500e-01 0.000000e+00
-3.024000e+00 1.923750e-01 0.000000e+00
-2.940000e+00 1.923750e-01 0.000000e+00
-2.856000e+00 1.923750e-01 0.000000e+00
-2.772000e+00 1.923750e-01 0.000000e+00
-2.688000e+00 1.923750e-01 0.000000e+00
-3.024000e+00 2.565000e-01 0.000000e+00
-2.940000e+00 2.565000e-01 0.000000e+00
-2.856000e+00 2.565000e-01 0.000000e+00
-2.772000e+00 2.565000e-01 0.000000e+00
-2.688000e+00 2.565000e-01 0.000000e+00
-2.688000e+00 0.000000e+00 0.000000e+00
-2.604000e+00 0.000000e+00 0.000000e+00
-2.520000e+00 0.000000e+00 0.000000e+00
-2.436000e+00 0.000000e+00 0.000000e+00
-2.352000e+00 0.000000e+00 0.000000e+00
-2.688000e+00 6.412500e-02 0.000000e+00
-2.604000e+00 6.412500e-02 0.000000e+00
-2.520000e+00 6.412500e-02 0.000000e+00
-2.436000e+00 6.412500e-02 0.000000e+00
-2.352000e+00 6.412500e-02 0.000000e+00
-2.688000e+00 1.282500e-01 0.000000e+00
-2.604000e+00 1.282500e-01 0.000000e+00
-2.520000e+00 1.282500e-01 0.000000e+00
-2.436000e+00 1.282500e-01 0.000000e+00
-2.352000e+00 1.282500e-01 0.000000e+00
-2.688000e+00 1.923750e-01 0.000000e+00
-2.604000e+00 1.923750e-01 0.000000e+00
-2.520000e+00 1.923750e-01 0.000000e+00
-2.436000e+00 1.923750e-01 0.000000e+00
-2.352000e+00 1.923750e-01 0.000000e+00
-2.688000e+00 2.565000e-01 0.000000e+00
-2.604000e+00 2.565000e-01 0.000000e+00
-2.520000e+00 2.565000e-01 0.000000e+00
-2.436000e+00 2.565000e-01 0.000000e+00
-2.352000e+00 2.565000e-01 0.000000e+00
-2.352000e+00 0.000000e+00 0.000000e+00
-2.268000e+00 0.000000e+00 0.000000e+00
-2.184000e+00 0.000000e+00 0.000000e+00
-2.100000e+00 0.000000e+00 0.000000e+00
-2.016000e+00 0.000000e+00 0.000000e+00
-2.352000e+00 6.412500e-02 0.000000e+00
-2.268000e+00 6.412500e-02 0.000000e+00
-2.184000e+00 6.412500e-02 0.000000e+00
-2.100000e+00 6.412500e-02 0.000000e+00
-2.016000e+00 6.412500e-02 0.000000e+00
-2.352000e+00 1.282500e-01 0.000000e+00
-2.268000e+00 1.282500e-01 0.000000e+00
-2.184000e+00 1.282500e-01 0.000000e+00
-2.100000e+00 1.282500e-01 0.000000e+00
-2.016000e+00 1.282500e-01 0.000000e+00
-2.352000e+00 1.923750e-01 0.000000e+00
-2.268000e+00 1.923750e-01 0.000000e+00
-2.184000e+00 1.923750e-01 0.000000e+00
-2.100000e+00 1.923750e-01 0.000000e+00
-2.016000e+00 1.923750e-01 0.000000e+00
-2.352000e+00 2.565000e-01 0.000000e+00
-2.268000e+00 2.565000e-01 0.000000e+00
-2.184000e+00 2.565000e-01 0.000000e+00
-2.100000e+00 2.565000e-01 0.000000e+00
-2.016000e+00 2.565000e-01 0.000000e+00
-2.016000e+00 0.000000e+00 0.000000e+00
-1.932000e+00 0.000000e+00 0.000000e+00
-1.848000e+00 0.000000e+00 0.000000e+00
-1.764000e+00 0.000000e+00 0.000000e+00
-1.680000e+00 0.000000e+00 0.000000e+00
-2.016000e+00 6.412500e-02 0.000000e+00
-1.932000e+00 6.412500e-02 0.000000e+00
-1.848000e+00 6.412500e-02 0.000000e+00
-1.764000e+00 6.412500e-02 0.000000e+00
-1.680000e+00 6.412500e-02 0.000000e+00
-2.016000e+00 1.282500e-01 0.000000e+00
-1.932000e+00 1.282500e-01 0.000000e+00
-1.848000e+00 1.282500e-01 0.000000e+00
-1.764000e+00 1.282500e-01 0.000000e+00
-1.680000e+00 1.282500e-01 0.000000e+00
-2.016000e+00 1.923750e-01 0.000000e+00
-1.932000e+00 1.923750e-01 0.000000e+00
-1.848000e+00 1.923750e-01 0.000000e+00
-1.764000e+00 1.923750e-01 0.000000e+00
-1.680000e+00 1.923750e-01 0.000000e+00
-2.016000e+00 2.565000e-01 0.000000e+00
-1.932000e+00 2.565000e-01 0.000000e+00
-1.848000e+00 2.565000e-01 0.000000e+00
-1.764000e+00 2.565000e-01 0.000000e+00
-1.680000e+00 2.565000e-01 0.000000e+00
-1.680000e+00 0.000000e+00 0.000000e+00
-1.596000e+00 0.000000e+00 0.000000e+00
-1.512000e+00 0.000000e+00 0.000000e+00
-1.428000e+00 0.000000e+00 0.000000e+00
-1.344000e+00 0.000000e+00 0.000000e+00
-1.680000e+00 6.412500e-02 0.000000e+00
-1.596000e+00 6.412500e-02 0.000000e+00
-1.512000e+00 6.412500e-02 0.000000e+00
-1.428000e+00 6.412500e-02 0.000000e+00
-1.344000e+00 6.412500e-02 0.000000e+00
-1.680000e+00 1.282500e-01 0.000000e+00
-1.596000e+00 1.282500e-01 0.000000e+00
-1.512000e+00 1.282500e-01 0.000000e+00
-1.428000e+00 1.282500e-01 0.000000e+00
-1.344000e+00 1.282500e-01 0.000000e+00
-1.680000e+00 1.923750e-01 0.000000e+00
-1.596000e+00 1.923750e-01 0.000000e+00
-1.512000e+00 1.923750e-01 0.000000e+00
-1.428000e+00 1.923750e-01 0.000000e+00
-1.344000e+00 1.923750e-01 0.000000e+00
-1.680000e+00 2.565000e-01 0.000000e+00
-1.596000e+00 2.565000e-01 0.000000e+00
-1.512000e+00 2.565000e-01 0.000000e+00
-1.428000e+00 2.565000e-01 0.000000e+00
-1.344000e+00 2.565000e-01 0.000000e+00
-1.344000e+00 0.000000e+00 0.000000e+00
-1.260000e+00 0.000000e+00 0.000000e+00
-1.176000e+00 0.000000e+00 0.000000e+00
-1.092000e+00 0.000000e+00 0.000000e+00
-1.008000e+00 0.000000e+00 0.000000e+00
-1.344000e+00 6.412500e-02 0.000000e+00
-1.260000e+00 6.412500e-02 0.000000e+00
-1.176000e+00 6.412500e-02 0.000000e+00
-1.092000e+00 6.412500e-02 0.000000e+00
-1.008000e+00 6.412500e-02 0.000000e+00
-1.344000e+00 1.282500e-01 0.000000e+00
-1.260000e+00 1.282500e-01 0.000000e+00
-1.176000e+00 1.282500e-01 0.000000e+00
-1.092000e+00 1.282500e-01 0.000000e+00
-1.008000e+00 1.282500e-01 0.000000e+00
-1.344000e+00 1.923750e-01 0.000000e+00
-1.260000e+00 1.923750e-01 0.000000e+00
-1.176000e+00 1.923750e-01 0.000000e+00
-1.092000e+00 1.923750e-01 0.000000e+00
-1.008000e+00 1.923750e-01 0.000000e+00
-1.344000e+00 2.565000e-01 0.000000e+00
-1.260000e+00 2.565000e-01 0.000000e+00
-1.176000e+00 2.565000e-01 0.000000e+00
-1.092000e+00 2.565000e-01 0.000000e+00
-1.008000e+00 2.565000e-01 0.000000e+00
-1.008000e+00 0.000000e+00 0.000000e+00
-9.240000e-01 0.000000e+00 0.000000e+00
-8.400000e-01 0.000000e+00 0.000000e+00
-7.560000e-01 0.000000e+00 0.000000e+00
-6.720000e-01 0.000000e+00 0.000000e+00
-1.008000e+00 6.412500e-02 0.000000e+00
-9.240000e-01 6.412500e-02 0.000000e+00
-8.400000e-01 6.412500e-02 0.000000e+00
-7.560000e-01 6.412500e-02 0.000000e+00
-6.720000e-01 6.412500e-02 0.000000e+00
-1.008000e+00 1.282500e-01 0.000000e+00
-9.240000e-01 1.282500e-01 0.000000e+00
-8.400000e-01 1.282500e-01 0.000000e+00
-7.560000e-01 1.282500e-01 0.000000e+00
-6.720000e-01 1.282500e-01 0.000000e+00
-1.008000e+00 1.923750e-01 0.000000e+00
-9.240000e-01 1.923750e-01 0.000000e+00
-8.400000e-01 1.923750e-01 0.000000e+00
-7.560000e-01 1.923750e-01 0.000000e+00
-6.720000e-01 1.923750e-01 0.000000e+00
-1.008000e+00 2.565000e-01 0.000000e+00
-9.240000e-01 2.565000e-01 0.000000e+00
-8.400000e-01 2.565000e-01 0.000000e+00
-7.560000e-01 2.565000e-01 0.000000e+00
-6.720000e-01 2.565000e-01 0.000000e+00
-6.720000e-01 0.000000e+00 0.000000e+00
-5.880000e-01 0.000000e+00 0.000000e+00
-5.040000e-01 0.000000e+00 0.000000e+00
-4.200000e-01 0.000000e+00 0.000000e+00
-3.360000e-01 0.000000e+00 0.000000e+00
-6.720000e-01 6.412500e-02 0.000000e+00
-5.880000e-01 6.412500e-02 0.000000e+00
-5.040000e-01 6.412500e-02 0.000000e+00
-4.200000e-01 6.412500e-02 0.000000e+00
-3.360000e-01 6.412500e-02 0.000000e+00
-6.720000e-01 1.282500e-01 0.000000e+00
-5.880000e-01 1.282500e-01 0.000000e+00
-5.040000e-01 1.282500e-01 0.000000e+00
-4.200000e-01 1.282500e-01 0.000000e+00
-3.360000e-01 1.282500e-01 0.000000e+00
-6.720000e-01 1.923750e-01 0.000000e+00
-5.880000e-01 1.923750e-01 0.000000e+00
-5.040000e-01 1.923750e-01 0.000000e+00
-4.200000e-01 1.923750e-01 0.000000e+00
-3.360000e-01 1.923750e-01 0.000000e+00
-6.720000e-01 2.565000e-01 0.000000e+00
-5.880000e-01 2.565000e-01 0.000000e+00
-5.040000e-01 2.565000e-01 0.000000e+00
-4.200000e-01 2.565000e-01 0.000000e+00
-3.360000e-01 2.565000e-01 0.000000e+00
-3.360000e-01 0.000000e+00 0.000000e+00
-2.520000e-01 0.000000e+00 0.000000e+00
-1.680000e-01 0.000000e+00 0.000000e+00
-8.400000e-02 0.000000e+00 0.000000e+00
-4.440890e-16 0.000000e+00 0.000000e+00
-3.360000e-01 6.412500e-02 0.000000e+00
-2.520000e-01 6.412500e-02 0.000000e+00
-1.680000e-01 6.412500e-02 0.000000e+00
-8.400000e-02 6.412500e-02 0.000000e+00
-4.440890e-16 6.412500e-02 0.000000e+00
-3.360000e-01 1.282500e-01 0.000000e+00
-2.520000e-01 1.282500e-01 0.000000e+00
-1.680000e-01 1.282500e-01 0.000000e+00
-8.400000e-02 1.282500e-01 0.000000e+00
-4.440890e-16 1.282500e-01 0.000000e+00
-3.360000e-01 1.923750e-01 0.000000e+00
-2.520000e-01 1.923750e-01 0.000000e+00
-1.680000e-01 1.923750e-01 0.000000e+00
[...]
<PointData>
<DataArray type="Float32" Name="V1" format="ascii">
0.000000e+00
0.000000e+00
0.000000e+00
0.000000e+00
0.000000e+00
6.347820e-02
5.963620e-02
5.572990e-02
5.175930e-02
4.772450e-02
1.013490e-01
9.772490e-02
9.350110e-02
8.867720e-02
8.325330e-02
1.136110e-01
1.142660e-01
1.133140e-01
1.107540e-01
1.065860e-01
1.002660e-01
1.092600e-01
1.151680e-01
1.179890e-01
1.177240e-01
0.000000e+00
0.000000e+00
0.000000e+00
0.000000e+00
0.000000e+00
4.772450e-02
4.370780e-02
4.124860e-02
4.034690e-02
4.100280e-02
8.325330e-02
7.775780e-02
7.444700e-02
7.332070e-02
7.437900e-02
1.065860e-01
1.021500e-01
9.959520e-02
9.892130e-02
1.001290e-01
1.177240e-01
1.168850e-01
1.166930e-01
1.171490e-01
1.182520e-01
0.000000e+00
0.000000e+00
0.000000e+00
0.000000e+00
0.000000e+00
4.100280e-02
4.174240e-02
4.269180e-02
4.385100e-02
4.522000e-02
7.437900e-02
7.571860e-02
7.748080e-02
7.966560e-02
8.227310e-02
1.001290e-01
1.019290e-01
1.043670e-01
1.074440e-01
1.111590e-01
1.182520e-01
1.203730e-01
1.233510e-01
1.271860e-01
1.318780e-01
0.000000e+00
0.000000e+00
0.000000e+00
0.000000e+00
0.000000e+00
4.522000e-02
4.671420e-02
4.866470e-02
5.107170e-02
5.393510e-02
8.227310e-02
8.511230e-02
8.869610e-02
9.302470e-02
9.809790e-02
1.111590e-01
1.151940e-01
1.200940e-01
1.258590e-01
1.324890e-01
1.318780e-01
1.369600e-01
1.428590e-01
1.495750e-01
1.571070e-01
0.000000e+00
0.000000e+00
0.000000e+00
0.000000e+00
0.000000e+00
5.393510e-02
5.702980e-02
6.071810e-02
6.500010e-02
6.987570e-02
9.809790e-02
1.035740e-01
1.100550e-01
1.175410e-01
1.260310e-01
1.324890e-01
1.396330e-01
1.480100e-01
1.576220e-01
1.684670e-01
1.571070e-01
1.652060e-01
1.745840e-01
1.852430e-01
1.971820e-01
0.000000e+00
0.000000e+00
0.000000e+00
0.000000e+00
0.000000e+00
6.987570e-02
7.485050e-02
8.101330e-02
8.836420e-02
9.690330e-02
1.260310e-01
1.346860e-01
1.452870e-01
1.578340e-01
1.723270e-01
1.684670e-01
1.795070e-01
1.928210e-01
2.084100e-01
2.262720e-01
1.971820e-01
2.093130e-01
2.236160e-01
2.400910e-01
2.587380e-01
0.000000e+00
0.000000e+00
0.000000e+00
0.000000e+00
0.000000e+00
9.690330e-02
1.050830e-01
1.154280e-01
1.279390e-01
1.426160e-01
1.723270e-01
1.862280e-01
2.036030e-01
2.244520e-01
2.487760e-01
2.262720e-01
2.434350e-01
2.645230e-01
2.895380e-01
3.184800e-01
2.587380e-01
2.767030e-01
2.981900e-01
3.231980e-01
3.517280e-01
0.000000e+00
0.000000e+00
0.000000e+00
0.000000e+00
0.000000e+00
1.426160e-01
1.565400e-01
1.734070e-01
1.932170e-01
2.159700e-01
2.487760e-01
2.719890e-01
2.998070e-01
3.322290e-01
3.692550e-01
3.184800e-01
3.463480e-01
3.792010e-01
4.170360e-01
4.598540e-01
3.517280e-01
3.796170e-01
4.115870e-01
4.476380e-01
4.877680e-01
0.000000e+00
0.000000e+00
0.000000e+00
0.000000e+00
0.000000e+00
2.159700e-01
2.408650e-01
2.666530e-01
2.933330e-01
3.209060e-01
3.692550e-01
4.101470e-01
4.524640e-01
4.962040e-01
5.413690e-01
4.598540e-01
5.078470e-01
5.574330e-01
6.086130e-01
6.613870e-01
4.877680e-01
5.339630e-01
5.815610e-01
6.305600e-01
6.809620e-01
0.000000e+00
0.000000e+00
0.000000e+00
0.000000e+00
0.000000e+00
3.209060e-01
3.577950e-01
3.897260e-01
4.166990e-01
4.387140e-01
5.413690e-01
6.019180e-01
6.553380e-01
7.016290e-01
7.407900e-01
6.613870e-01
7.323690e-01
7.968370e-01
8.547900e-01
9.062290e-01
6.809620e-01
7.491480e-01
8.142220e-01
8.761830e-01
9.350320e-01
0.000000e+00
0.000000e+00
0.000000e+00
0.000000e+00
0.000000e+00
4.387140e-01
4.652470e-01
4.819790e-01
4.889090e-01
4.860380e-01
7.407900e-01
7.879700e-01
8.207040e-01
8.389920e-01
8.428340e-01
9.062290e-01
9.681690e-01
1.016180e+00
1.050250e+00
1.070390e+00
9.350320e-01
1.005840e+00
1.068390e+00
1.122680e+00
1.168700e+00
0.000000e+00
0.000000e+00
0.000000e+00
0.000000e+00
0.000000e+00
4.860380e-01
4.600700e-01
4.266820e-01
3.858740e-01
3.376450e-01
8.428340e-01
8.109780e-01
7.661410e-01
7.083220e-01
6.375220e-01
1.070390e+00
1.052720e+00
1.018380e+00
9.673450e-01
8.996310e-01
1.168700e+00
1.185310e+00
1.183390e+00
1.162940e+00
1.123970e+00
0.000000e+00
0.000000e+00
0.000000e+00
0.000000e+00
0.000000e+00
3.376450e-01
2.789800e-01
2.246610e-01
1.746870e-01
1.290580e-01
6.375220e-01
5.442370e-01
4.547600e-01
3.690910e-01
2.872290e-01
8.996310e-01
7.957700e-01
6.902970e-01
5.832110e-01
4.745140e-01
1.123970e+00
1.033580e+00
9.312710e-01
8.170480e-01
6.909110e-01
0.000000e+00
0.000000e+00
0.000000e+00
0.000000e+00
0.000000e+00
1.290580e-01
9.415510e-02
6.838950e-02
5.176140e-02
4.427090e-02
2.872290e-01
2.221290e-01
1.727330e-01
1.390400e-01
1.210500e-01
4.745140e-01
3.839220e-01
3.130290e-01
2.618350e-01
2.303380e-01
6.909110e-01
5.795340e-01
4.892790e-01
4.201460e-01
3.721350e-01
0.000000e+00
0.000000e+00
0.000000e+00
0.000000e+00
0.000000e+00
4.427090e-02
3.694090e-02
3.541750e-02
3.970050e-02
4.979000e-02
1.210500e-01
1.047670e-01
9.800800e-02
1.007720e-01
1.130600e-01
2.303380e-01
2.034790e-01
1.877720e-01
1.832150e-01
1.898090e-01
3.721350e-01
3.330770e-01
3.047080e-01
2.870290e-01
2.800380e-01
0.000000e+00
0.000000e+00
0.000000e+00
0.000000e+00
0.000000e+00
4.979000e-02
5.668890e-02
6.111890e-02
6.307980e-02
6.257170e-02
1.130600e-01
1.214590e-01
1.260150e-01
1.267290e-01
1.236010e-01
1.898090e-01
1.943090e-01
1.946880e-01
1.909480e-01
1.830870e-01
2.800380e-01
2.752390e-01
2.671390e-01
2.557360e-01
2.410310e-01
0.000000e+00
0.000000e+00
0.000000e+00
0.000000e+00
0.000000e+00
6.257170e-02
6.375870e-02
6.366710e-02
6.229660e-02
5.964750e-02
1.236010e-01
1.233280e-01
1.213190e-01
1.175740e-01
1.120930e-01
1.830870e-01
1.787070e-01
1.729550e-01
1.658310e-01
1.573350e-01
2.410310e-01
2.298970e-01
2.185760e-01
2.070690e-01
1.953760e-01
0.000000e+00
0.000000e+00
0.000000e+00
0.000000e+00
0.000000e+00
5.964750e-02
5.809280e-02
5.622590e-02
5.404680e-02
5.155540e-02
1.120930e-01
1.083610e-01
1.042620e-01
9.979520e-02
9.496120e-02
1.573350e-01
1.508040e-01
1.441070e-01
1.372450e-01
1.302170e-01
1.953760e-01
1.854220e-01
1.757630e-01
1.663970e-01
1.573240e-01
0.000000e+00
0.000000e+00
0.000000e+00
0.000000e+00
0.000000e+00
5.155540e-02
4.965790e-02
4.765930e-02
4.555950e-02
4.335860e-02
9.496120e-02
9.111870e-02
8.720660e-02
8.322470e-02
7.917310e-02
1.302170e-01
1.243820e-01
1.186420e-01
1.129960e-01
1.074440e-01
1.573240e-01
1.494490e-01
1.419650e-01
1.348720e-01
1.281700e-01
0.000000e+00
0.000000e+00
0.000000e+00
0.000000e+00
0.000000e+00
4.335860e-02
4.189750e-02
3.977540e-02
3.699240e-02
3.354830e-02
7.917310e-02
7.610980e-02
7.229030e-02
6.771450e-02
6.238250e-02
1.074440e-01
1.026370e-01
9.754460e-02
9.216650e-02
8.650250e-02
1.281700e-01
1.214790e-01
1.155380e-01
1.103480e-01
1.059080e-01
1.002660e-01
1.092600e-01
1.151680e-01
1.179890e-01
1.177240e-01
9.945850e-02
1.074990e-01
1.136330e-01
1.178620e-01
1.201850e-01
9.848610e-02
1.054440e-01
1.113970e-01
1.163460e-01
1.202900e-01
9.734850e-02
1.030960e-01
1.084600e-01
1.134400e-01
1.180360e-01
9.604590e-02
1.004550e-01
1.048210e-01
1.091440e-01
1.134240e-01
1.177240e-01
1.168850e-01
1.166930e-01
1.171490e-01
1.182520e-01
1.201850e-01
1.214020e-01
1.227900e-01
1.243490e-01
1.260800e-01
1.202900e-01
1.229810e-01
1.255260e-01
1.279240e-01
1.301750e-01
1.180360e-01
1.216220e-01
1.249010e-01
1.278720e-01
1.305360e-01
1.134240e-01
1.173250e-01
1.209150e-01
1.241950e-01
1.271640e-01
1.182520e-01
1.203730e-01
1.233510e-01
1.271860e-01
1.318780e-01
1.260800e-01
1.285120e-01
1.317770e-01
1.358740e-01
1.408050e-01
1.301750e-01
1.328920e-01
1.363800e-01
1.406390e-01
1.456690e-01
1.305360e-01
1.335130e-01
1.371610e-01
1.414800e-01
1.464710e-01
1.271640e-01
1.303750e-01
1.341190e-01
1.383980e-01
1.432100e-01
1.318780e-01
1.369600e-01
1.428590e-01
1.495750e-01
1.571070e-01
1.408050e-01
1.461870e-01
1.523650e-01
1.593410e-01
1.671120e-01
1.456690e-01
1.511800e-01
1.574590e-01
1.645050e-01
1.723180e-01
1.464710e-01
1.519410e-01
1.581400e-01
1.650680e-01
1.727250e-01
1.432100e-01
1.484680e-01
1.544080e-01
1.610300e-01
1.683330e-01
1.571070e-01
1.652060e-01
1.745840e-01
1.852430e-01
1.971820e-01
1.671120e-01
1.753790e-01
1.848910e-01
1.956500e-01
2.076560e-01
1.723180e-01
1.805710e-01
1.900180e-01
2.006590e-01
2.124950e-01
1.727250e-01
1.807840e-01
1.899650e-01
2.002700e-01
2.116980e-01
1.683330e-01
1.760160e-01
1.847320e-01
1.944820e-01
2.052650e-01
1.971820e-01
2.093130e-01
2.236160e-01
2.400910e-01
2.587380e-01
2.076560e-01
2.197650e-01
2.339950e-01
2.503450e-01
2.688170e-01
2.124950e-01
2.243850e-01
2.383160e-01
2.542900e-01
2.723050e-01
2.116980e-01
2.231730e-01
2.365810e-01
2.519240e-01
2.692010e-01
2.052650e-01
2.161290e-01
2.287900e-01
2.432490e-01
2.595050e-01
2.587380e-01
2.767030e-01
2.981900e-01
3.231980e-01
3.517280e-01
2.688170e-01
2.862010e-01
3.072320e-01
3.319110e-01
3.602370e-01
2.723050e-01
2.889330e-01
3.092870e-01
3.333660e-01
3.611710e-01
2.692010e-01
2.849000e-01
3.043550e-01
3.275650e-01
3.545300e-01
2.595050e-01
2.741020e-01
2.924360e-01
3.145060e-01
3.403130e-01
3.517280e-01
3.796170e-01
4.115870e-01
4.476380e-01
4.877680e-01
3.602370e-01
3.868790e-01
4.181590e-01
4.540770e-01
4.946330e-01
3.611710e-01
3.863170e-01
4.166020e-01
4.520260e-01
4.925880e-01
3.545300e-01
3.779320e-01
4.069160e-01
4.414830e-01
4.816330e-01
3.403130e-01
3.617220e-01
3.891010e-01
4.224490e-01
4.617670e-01
4.877680e-01
5.339630e-01
5.815610e-01
6.305600e-01
6.809620e-01
4.946330e-01
5.399460e-01
5.877590e-01
6.380730e-01
6.908870e-01
4.925880e-01
5.366910e-01
5.841860e-01
6.350750e-01
6.893560e-01
4.816330e-01
5.241970e-01
5.708410e-01
6.215650e-01
6.763680e-01
4.617670e-01
5.024650e-01
5.477240e-01
5.975430e-01
6.519230e-01
6.809620e-01
7.491480e-01
8.142220e-01
8.761830e-01
9.350320e-01
6.908870e-01
7.639560e-01
8.338630e-01
9.006090e-01
9.641920e-01
6.893560e-01
7.666520e-01
8.409430e-01
9.122290e-01
9.805110e-01
6.763680e-01
7.572350e-01
8.354610e-01
9.110450e-01
9.839880e-01
6.519230e-01
7.357050e-01
8.174160e-01
8.970560e-01
9.746240e-01
9.350320e-01
1.005840e+00
1.068390e+00
1.122680e+00
1.168700e+00
9.641920e-01
1.048210e+00
1.122490e+00
1.187040e+00
1.241860e+00
9.805110e-01
1.076600e+00
1.161650e+00
1.235650e+00
1.298620e+00
9.839880e-01
1.091020e+00
1.185870e+00
1.268510e+00
1.338960e+00
9.746240e-01
1.091480e+00
1.195150e+00
1.285620e+00
1.362900e+00
1.168700e+00
1.185310e+00
1.183390e+00
1.162940e+00
1.123970e+00
1.241860e+00
1.263410e+00
1.269450e+00
1.259970e+00
1.234980e+00
1.298620e+00
1.324700e+00
1.337160e+00
1.336010e+00
1.321240e+00
1.338960e+00
1.369160e+00
1.386520e+00
1.391050e+00
1.382730e+00
1.362900e+00
1.396800e+00
1.417530e+00
1.425090e+00
1.419480e+00
1.123970e+00
1.033580e+00
9.312710e-01
8.170480e-01
6.909110e-01
1.234980e+00
1.163200e+00
1.077930e+00
9.791710e-01
8.669250e-01
1.321240e+00
1.259350e+00
1.185000e+00
1.098180e+00
9.988900e-01
1.382730e+00
1.322030e+00
1.252480e+00
1.174070e+00
1.086800e+00
1.419480e+00
1.351250e+00
1.280370e+00
1.206840e+00
1.130670e+00
6.909110e-01
5.795340e-01
4.892790e-01
4.201460e-01
3.721350e-01
8.669250e-01
7.502000e-01
6.504060e-01
5.675420e-01
5.016090e-01
9.988900e-01
8.834630e-01
7.799210e-01
6.882630e-01
6.084890e-01
1.086800e+00
9.793240e-01
8.778250e-01
7.823080e-01
6.927750e-01
1.130670e+00
1.037780e+00
9.441170e-01
8.496790e-01
7.544670e-01
3.721350e-01
3.330770e-01
3.047080e-01
2.870290e-01
2.800380e-01
5.016090e-01
4.497230e-01
4.077090e-01
3.755640e-01
3.532900e-01
6.084890e-01
5.459010e-01
4.921380e-01
4.472010e-01
4.110900e-01
6.927750e-01
6.216080e-01
5.579970e-01
5.019400e-01
4.534370e-01
7.544670e-01
6.768470e-01
6.052850e-01
5.397800e-01
4.803320e-01
2.800380e-01
2.752390e-01
2.671390e-01
2.557360e-01
2.410310e-01
3.532900e-01
3.372600e-01
3.195760e-01
3.002370e-01
2.792440e-01
4.110900e-01
3.847990e-01
3.585340e-01
3.322940e-01
3.060800e-01
4.534370e-01
4.178560e-01
3.840130e-01
3.519080e-01
3.215410e-01
4.803320e-01
4.364310e-01
3.960120e-01
3.590770e-01
3.256250e-01
2.410310e-01
2.298970e-01
2.185760e-01
2.070690e-01
1.953760e-01
2.792440e-01
2.630420e-01
2.474230e-01
2.323860e-01
2.179310e-01
3.060800e-01
2.858910e-01
2.669590e-01
2.492840e-01
2.328650e-01
3.215410e-01
2.984430e-01
2.771830e-01
2.577610e-01
2.401780e-01
3.256250e-01
3.006970e-01
2.780950e-01
2.578190e-01
2.398680e-01
1.953760e-01
1.854220e-01
1.757630e-01
1.663970e-01
1.573240e-01
2.179310e-01
2.055410e-01
1.937930e-01
1.826870e-01
1.722250e-01
2.328650e-01
2.186280e-01
2.053420e-01
1.930080e-01
1.816240e-01
2.401780e-01
2.246850e-01
2.104120e-01
1.973580e-01
1.855220e-01
2.398680e-01
2.237120e-01
2.090020e-01
1.957380e-01
1.839190e-01
1.573240e-01
1.494490e-01
1.419650e-01
1.348720e-01
1.281700e-01
1.722250e-01
1.632330e-01
1.547450e-01
1.467610e-01
1.392800e-01
1.816240e-01
1.719030e-01
1.627760e-01
1.542450e-01
1.463090e-01
1.855220e-01
1.754590e-01
1.660590e-01
1.573250e-01
1.492550e-01
1.839190e-01
1.739010e-01
1.645940e-01
1.560010e-01
1.481190e-01
1.281700e-01
1.214790e-01
1.155380e-01
1.103480e-01
1.059080e-01
1.392800e-01
1.320800e-01
1.257080e-01
1.201660e-01
1.154540e-01
1.463090e-01
1.388320e-01
1.322220e-01
1.264800e-01
1.216050e-01
1.492550e-01
1.417350e-01
1.350800e-01
1.292890e-01
1.243630e-01
1.481190e-01
1.407900e-01
1.342810e-01
1.285940e-01
1.237280e-01
9.604590e-02
1.004550e-01
1.048210e-01
1.091440e-01
1.134240e-01
9.458900e-02
9.853700e-02
1.024820e-01
1.064250e-01
1.103640e-01
9.299440e-02
9.662190e-02
1.002400e-01
1.038500e-01
1.074500e-01
9.126190e-02
9.470950e-02
9.809550e-02
1.014200e-01
1.046820e-01
8.939170e-02
9.279980e-02
9.604740e-02
9.913440e-02
1.020610e-01
1.134240e-01
1.173250e-01
1.209150e-01
1.241950e-01
1.271640e-01
1.103640e-01
1.141230e-01
1.176930e-01
1.210740e-01
1.242660e-01
1.074500e-01
1.110230e-01
1.145160e-01
1.179280e-01
1.212610e-01
1.046820e-01
1.080250e-01
1.113840e-01
1.147580e-01
1.181480e-01
1.020610e-01
1.051290e-01
1.082970e-01
1.115640e-01
1.149300e-01
1.271640e-01
1.303750e-01
1.341190e-01
1.383980e-01
1.432100e-01
1.242660e-01
1.276390e-01
1.314650e-01
1.357450e-01
1.404790e-01
1.212610e-01
1.247380e-01
1.285990e-01
1.328440e-01
1.374720e-01
1.181480e-01
1.216740e-01
1.255220e-01
1.296930e-01
1.341880e-01
1.149300e-01
1.184440e-01
1.222330e-01
1.262940e-01
1.306280e-01
1.432100e-01
1.484680e-01
1.544080e-01
1.610300e-01
1.683330e-01
1.404790e-01
1.455980e-01
1.513630e-01
1.577730e-01
1.648290e-01
1.374720e-01
1.424280e-01
1.479900e-01
1.541590e-01
1.609330e-01
1.341880e-01
1.389580e-01
1.442910e-01
1.501860e-01
1.566430e-01
1.306280e-01
1.351890e-01
1.402640e-01
1.458540e-01
1.519590e-01
1.683330e-01
1.760160e-01
1.847320e-01
1.944820e-01
2.052650e-01
1.648290e-01
1.722200e-01
1.805880e-01
1.899320e-01
2.002540e-01
1.609330e-01
1.679870e-01
1.759580e-01
1.848460e-01
1.946500e-01
1.566430e-01
1.633180e-01
1.708450e-01
1.792230e-01
1.884530e-01
1.519590e-01
1.582110e-01
1.652460e-01
1.730640e-01
1.816640e-01
2.052650e-01
2.161290e-01
2.287900e-01
2.432490e-01
2.595050e-01
2.002540e-01
2.106100e-01
2.226700e-01
2.364350e-01
2.519050e-01
1.946500e-01
2.044080e-01
2.157760e-01
2.287550e-01
2.433450e-01
1.884530e-01
1.975220e-01
2.081080e-01
2.202090e-01
2.338260e-01
1.816640e-01
1.899540e-01
1.996650e-01
2.107960e-01
2.233480e-01
2.595050e-01
2.741020e-01
2.924360e-01
3.145060e-01
3.403130e-01
2.519050e-01
2.655440e-01
2.829230e-01
3.040410e-01
3.288980e-01
2.433450e-01
2.559090e-01
2.721680e-01
2.921230e-01
3.157740e-01
2.338260e-01
2.451960e-01
2.601710e-01
2.787520e-01
3.009390e-01
2.233480e-01
2.334060e-01
2.469330e-01
2.639290e-01
2.843950e-01
3.403130e-01
3.617220e-01
3.891010e-01
4.224490e-01
4.617670e-01
3.288980e-01
3.478910e-01
3.736580e-01
4.061990e-01
4.455150e-01
3.157740e-01
3.319680e-01
3.557890e-01
3.872340e-01
4.263050e-01
3.009390e-01
3.139550e-01
3.354930e-01
3.655540e-01
4.041370e-01
2.843950e-01
2.938500e-01
3.127710e-01
3.411580e-01
3.790110e-01
4.617670e-01
5.024650e-01
5.477240e-01
5.975430e-01
6.519230e-01
4.455150e-01
4.844330e-01
5.278710e-01
5.758310e-01
6.283110e-01
4.263050e-01
4.612450e-01
5.014480e-01
5.469130e-01
5.976410e-01
4.041370e-01
4.329020e-01
4.684540e-01
5.107910e-01
5.599150e-01
3.790110e-01
3.994050e-01
4.288890e-01
4.674640e-01
5.151300e-01
6.519230e-01
7.357050e-01
8.174160e-01
8.970560e-01
9.746240e-01
6.283110e-01
7.179630e-01
8.022620e-01
8.812080e-01
9.548020e-01
5.976410e-01
6.902780e-01
7.727840e-01
8.451610e-01
9.074080e-01
5.599150e-01
6.526500e-01
7.289840e-01
7.889140e-01
8.324410e-01
5.151300e-01
6.050810e-01
6.708600e-01
7.124670e-01
7.299020e-01
9.746240e-01
1.091480e+00
1.195150e+00
1.285620e+00
1.362900e+00
9.548020e-01
1.069590e+00
1.171470e+00
1.260440e+00
1.336500e+00
9.074080e-01
1.021040e+00
1.121160e+00
1.207760e+00
1.280850e+00
8.324410e-01
9.458490e-01
1.044230e+00
1.127600e+00
1.195940e+00
7.299020e-01
8.440040e-01
9.406810e-01
1.019930e+00
1.081760e+00
1.362900e+00
1.396800e+00
1.417530e+00
1.425090e+00
1.419480e+00
1.336500e+00
1.372010e+00
1.400010e+00
1.420490e+00
1.433470e+00
1.280850e+00
1.313450e+00
1.343770e+00
1.371820e+00
1.397590e+00
1.195940e+00
1.221100e+00
1.248800e+00
1.279050e+00
1.311850e+00
1.081760e+00
1.094970e+00
1.115120e+00
1.142200e+00
1.176230e+00
1.419480e+00
1.351250e+00
1.280370e+00
1.206840e+00
1.130670e+00
1.433470e+00
1.365970e+00
1.293180e+00
1.215120e+00
1.131780e+00
1.397590e+00
1.334030e+00
1.264480e+00
1.188940e+00
1.107400e+00
1.311850e+00
1.255440e+00
1.194260e+00
1.128290e+00
1.057530e+00
1.176230e+00
1.130200e+00
1.082520e+00
1.033170e+00
9.821640e-01
1.130670e+00
1.037780e+00
9.441170e-01
8.496790e-01
7.544670e-01
1.131780e+00
1.042990e+00
9.529720e-01
8.617240e-01
7.692460e-01
1.107400e+00
1.023210e+00
9.372220e-01
8.494500e-01
7.598910e-01
1.057530e+00
9.784230e-01
8.968660e-01
8.128590e-01
7.264010e-01
9.821640e-01
9.086440e-01
8.319050e-01
7.519500e-01
6.687760e-01
7.544670e-01
6.768470e-01
6.052850e-01
5.397800e-01
4.803320e-01
7.692460e-01
6.939210e-01
6.217010e-01
5.525870e-01
4.865770e-01
7.598910e-01
6.904300e-01
6.210350e-01
5.517060e-01
4.824420e-01
7.264010e-01
6.663750e-01
6.032880e-01
5.371380e-01
4.679260e-01
6.687760e-01
6.217560e-01
5.684580e-01
5.088830e-01
4.430300e-01
4.803320e-01
4.364310e-01
3.960120e-01
3.590770e-01
3.256250e-01
4.865770e-01
4.381320e-01
3.944310e-01
3.554760e-01
3.212660e-01
4.824420e-01
4.320450e-01
3.871370e-01
3.477190e-01
3.137910e-01
4.679260e-01
4.181700e-01
3.741300e-01
3.358070e-01
3.032000e-01
4.430300e-01
3.965070e-01
3.554100e-01
3.197380e-01
2.894920e-01
3.256250e-01
3.006970e-01
2.780950e-01
2.578190e-01
2.398680e-01
3.212660e-01
2.962580e-01
2.737320e-01
2.536890e-01
2.361290e-01
3.137910e-01
2.894070e-01
2.675080e-01
2.480920e-01
2.311610e-01
3.032000e-01
2.801460e-01
2.594230e-01
2.410290e-01
2.249650e-01
2.894920e-01
2.684750e-01
2.494770e-01
2.325000e-01
2.175420e-01
2.398680e-01
2.237120e-01
2.090020e-01
1.957380e-01
1.839190e-01
2.361290e-01
2.199680e-01
2.053530e-01
1.922840e-01
1.807610e-01
2.311610e-01
2.152060e-01
2.008620e-01
1.881290e-01
1.770080e-01
2.249650e-01
2.094270e-01
1.955300e-01
1.832740e-01
1.726600e-01
2.175420e-01
2.026310e-01
1.893560e-01
1.777180e-01
1.677160e-01
1.839190e-01
1.739010e-01
1.645940e-01
1.560010e-01
1.481190e-01
1.807610e-01
1.710890e-01
1.621010e-01
1.537960e-01
1.461740e-01
1.770080e-01
1.677530e-01
1.591380e-01
1.511650e-01
1.438320e-01
1.726600e-01
1.638910e-01
1.557070e-01
1.481080e-01
1.410930e-01
1.677160e-01
1.595040e-01
1.518070e-01
1.446240e-01
1.379570e-01
1.481190e-01
1.407900e-01
1.342810e-01
1.285940e-01
1.237280e-01
1.461740e-01
1.390560e-01
1.327570e-01
1.272770e-01
1.226160e-01
1.438320e-01
1.369420e-01
1.308700e-01
1.256150e-01
1.211770e-01
1.410930e-01
1.344480e-01
1.286190e-01
1.236060e-01
1.194100e-01
1.379570e-01
1.315730e-01
1.260040e-01
1.212520e-01
1.173160e-01
8.939170e-02
9.279980e-02
9.604740e-02
9.913440e-02
1.020610e-01
8.740010e-02
9.059590e-02
9.365330e-02
9.657220e-02
9.935250e-02
8.530680e-02
8.828490e-02
9.115230e-02
9.390890e-02
9.655470e-02
8.311190e-02
8.586680e-02
8.854440e-02
9.114470e-02
9.366760e-02
8.081530e-02
8.334160e-02
8.582970e-02
8.827950e-02
9.069110e-02
1.020610e-01
1.051290e-01
1.082970e-01
1.115640e-01
1.149300e-01
9.935250e-02
1.022290e-01
1.052440e-01