<?xml version="1.0"?>
<VTKFile type="UnstructuredGrid" version="0.1" byte_order="LittleEndian" compressor="vtkZLibDataCompressor">
<UnstructuredGrid>
<Piece NumberOfPoints="10000" NumberOfCells="6400">
<Points>
<DataArray type="Float32" NumberOfComponents="3" format="ascii">
-3.360000e+00 0.000000e+00 0.000000e+00
-3.276000e+00 0.000000e+00 0.000000e+00
-3.192000e+00 0.000000e+00 0.000000e+00
-3.108000e+00 0.000000e+00 0.000000e+00
-3.024000e+00 0.000000e+00 0.000000e+00
-3.360000e+00 6.412500e-02 0.000000e+00
-3.276000e+00 6.412500e-02 0.000000e+00
-3.192000e+00 6.412500e-02 0.000000e+00
-3.108000e+00 6.412500e-02 0.000000e+00
-3.024000e+00 6.412500e-02 0.000000e+00
-3.360000e+00 1.282500e-01 0.000000e+00
-3.276000e+00 1.282500e-01 0.000000e+00
-3.192000e+00 1.282500e-01 0.000000e+00
-3.108000e+00 1.282500e-01 0.000000e+00
-3.024000e+00 1.282500e-01 0.000000e+00
-3.360000e+00 1.923750e-01 0.000000e+00
-3.276000e+00 1.923750e-01 0.000000e+00
-3.192000e+00 1.923750e-01 0.000000e+00
-3.108000e+00 1.923750e-01 0.000000e+00
-3.024000e+00 1.923750e-01 0.000000e+00
-3.360000e+00 2.565000e-01 0.000000e+00
-3.276000e+00 2.565000e-01 0.000000e+00
-3.192000e+00 2.565000e-01 0.000000e+00
-3.108000e+00 2.565000e-01 0.000000e+00
-3.024000e+00 2.565000e-01 0.000000e+00
-3.024000e+00 0.000000e+00 0.000000e+00
-2.940000e+00 0.000000e+00 0.000000e+00
-2.856000e+00 0.000000e+00 0.000000e+00
-2.772000e+00 0.000000e+00 0.000000e+00
-2.688000e+00 0.000000e+00 0.000000e+00
-3.024000e+00 6.412500e-02 0.000000e+00
-2.940000e+00 6.412500e-02 0.000000e+00
-2.856000e+00 6.412500e-02 0.000000e+00
-2.772000e+00 6.412500e-02 0.000000e+00
-2.688000e+00 6.412500e-02 0.000000e+00
-3.024000e+00 1.282500e-01 0.000000e+00
-2.940000e+00 1.282500e-01 0.000000e+00
-2.856000e+00 1.282500e-01 0.000000e+00
-2.772000e+00 1.282500e-01 0.000000e+00
-2.688000e+00 1.282500e-01 0.000000e+00
-3.024000e+00 1.923750e-01 0.000000e+00
-2.940000e+00 1.923750e-01 0.000000e+00
-2.856000e+00 1.923750e-01 0.000000e+00
-2.772000e+00 1.923750e-01 0.000000e+00
-2.688000e+00 1.923750e-01 0.000000e+00
-3.024000e+00 2.565000e-01 0.000000e+00
-2.940000e+00 2.565000e-01 0.000000e+00
-2.856000e+00 2.565000e-01 0.000000e+00
-2.772000e+00 2.565000e-01 0.000000e+00
-2.688000e+00 2.565000e-01 0.000000e+00
-2.688000e+00 0.000000e+00 0.000000e+00
-2.604000e+00 0.000000e+00 0.000000e+00
-2.520000e+00 0.000000e+00 0.000000e+00
-2.436000e+00 0.000000e+00 0.000000e+00
-2.352000e+00 0.000000e+00 0.000000e+00
-2.688000e+00 6.412500e-02 0.000000e+00
-2.604000e+00 6.412500e-02 0.000000e+00
-2.520000e+00 6.412500e-02 0.000000e+00
-2.436000e+00 6.412500e-02 0.000000e+00
-2.352000e+00 6.412500e-02 0.000000e+00
-2.688000e+00 1.282500e-01 0.000000e+00
-2.604000e+00 1.282500e-01 0.000000e+00
-2.520000e+00 1.282500e-01 0.000000e+00
-2.436000e+00 1.282500e-01 0.000000e+00
-2.352000e+00 1.282500e-01 0.000000e+00
-2.688000e+00 1.923750e-01 0.000000e+00
-2.604000e+00 1.923750e-01 0.000000e+00
-2.520000e+00 1.923750e-01 0.000000e+00
-2.436000e+00 1.923750e-01 0.000000e+00
-2.352000e+00 1.923750e-01 0.000000e+00
-2.688000e+00 2.565000e-01 0.000000e+00
-2.604000e+00 2.565000e-01 0.000000e+00
-2.520000e+00 2.565000e-01 0.000000e+00
-2.436000e+00 2.565000e-01 0.000000e+00
-2.352000e+00 2.565000e-01 0.000000e+00
-2.352000e+00 0.000000e+00 0.000000e+00
-2.268000e+00 0.000000e+00 0.000000e+00
-2.184000e+00 0.000000e+00 0.000000e+00
-2.100000e+00 0.000000e+00 0.000000e+00
-2.016000e+00 0.000000e+00 0.000000e+00
-2.352000e+00 6.412500e-02 0.000000e+00
-2.268000e+00 6.412500e-02 0.000000e+00
-2.184000e+00 6.412500e-02 0.000000e+00
-2.100000e+00 6.412500e-02 0.000000e+00
-2.016000e+00 6.412500e-02 0.000000e+00
-2.352000e+00 1.282500e-01 0.000000e+00
-2.268000e+00 1.282500e-01 0.000000e+00
-2.184000e+00 1.282500e-01 0.000000e+00
-2.100000e+00 1.282500e-01 0.000000e+00
-2.016000e+00 1.282500e-01 0.000000e+00
-2.352000e+00 1.923750e-01 0.000000e+00
-2.268000e+00 1.923750e-01 0.000000e+00
-2.184000e+00 1.923750e-01 0.000000e+00
-2.100000e+00 1.923750e-01 0.000000e+00
-2.016000e+00 1.923750e-01 0.000000e+00
-2.352000e+00 2.565000e-01 0.000000e+00
-2.268000e+00 2.565000e-01 0.000000e+00
-2.184000e+00 2.565000e-01 0.000000e+00
-2.100000e+00 2.565000e-01 0.000000e+00
-2.016000e+00 2.565000e-01 0.000000e+00
-2.016000e+00 0.000000e+00 0.000000e+00
-1.932000e+00 0.000000e+00 0.000000e+00
-1.848000e+00 0.000000e+00 0.000000e+00
-1.764000e+00 0.000000e+00 0.000000e+00
-1.680000e+00 0.000000e+00 0.000000e+00
-2.016000e+00 6.412500e-02 0.000000e+00
-1.932000e+00 6.412500e-02 0.000000e+00
-1.848000e+00 6.412500e-02 0.000000e+00
-1.764000e+00 6.412500e-02 0.000000e+00
-1.680000e+00 6.412500e-02 0.000000e+00
-2.016000e+00 1.282500e-01 0.000000e+00
-1.932000e+00 1.282500e-01 0.000000e+00
-1.848000e+00 1.282500e-01 0.000000e+00
-1.764000e+00 1.282500e-01 0.000000e+00
-1.680000e+00 1.282500e-01 0.000000e+00
-2.016000e+00 1.923750e-01 0.000000e+00
-1.932000e+00 1.923750e-01 0.000000e+00
-1.848000e+00 1.923750e-01 0.000000e+00
-1.764000e+00 1.923750e-01 0.000000e+00
-1.680000e+00 1.923750e-01 0.000000e+00
-2.016000e+00 2.565000e-01 0.000000e+00
-1.932000e+00 2.565000e-01 0.000000e+00
-1.848000e+00 2.565000e-01 0.000000e+00
-1.764000e+00 2.565000e-01 0.000000e+00
-1.680000e+00 2.565000e-01 0.000000e+00
-1.680000e+00 0.000000e+00 0.000000e+00
-1.596000e+00 0.000000e+00 0.000000e+00
-1.512000e+00 0.000000e+00 0.000000e+00
-1.428000e+00 0.000000e+00 0.000000e+00
-1.344000e+00 0.000000e+00 0.000000e+00
-1.680000e+00 6.412500e-02 0.000000e+00
-1.596000e+00 6.412500e-02 0.000000e+00
-1.512000e+00 6.412500e-02 0.000000e+00
-1.428000e+00 6.412500e-02 0.000000e+00
-1.344000e+00 6.412500e-02 0.000000e+00
-1.680000e+00 1.282500e-01 0.000000e+00
-1.596000e+00 1.282500e-01 0.000000e+00
-1.512000e+00 1.282500e-01 0.000000e+00
-1.428000e+00 1.282500e-01 0.000000e+00
-1.344000e+00 1.282500e-01 0.000000e+00
-1.680000e+00 1.923750e-01 0.000000e+00
-1.596000e+00 1.923750e-01 0.000000e+00
-1.512000e+00 1.923750e-01 0.000000e+00
-1.428000e+00 1.923750e-01 0.000000e+00
-1.344000e+00 1.923750e-01 0.000000e+00
-1.680000e+00 2.565000e-01 0.000000e+00
-1.596000e+00 2.565000e-01 0.000000e+00
-1.512000e+00 2.565000e-01 0.000000e+00
-1.428000e+00 2.565000e-01 0.000000e+00
-1.344000e+00 2.565000e-01 0.000000e+00
-1.344000e+00 0.000000e+00 0.000000e+00
-1.260000e+00 0.000000e+00 0.000000e+00
-1.176000e+00 0.000000e+00 0.000000e+00
-1.092000e+00 0.000000e+00 0.000000e+00
-1.008000e+00 0.000000e+00 0.000000e+00
-1.344000e+00 6.412500e-02 0.000000e+00
-1.260000e+00 6.412500e-02 0.000000e+00
-1.176000e+00 6.412500e-02 0.000000e+00
-1.092000e+00 6.412500e-02 0.000000e+00
-1.008000e+00 6.412500e-02 0.000000e+00
-1.344000e+00 1.282500e-01 0.000000e+00
-1.260000e+00 1.282500e-01 0.000000e+00
-1.176000e+00 1.282500e-01 0.000000e+00
-1.092000e+00 1.282500e-01 0.000000e+00
-1.008000e+00 1.282500e-01 0.000000e+00
-1.344000e+00 1.923750e-01 0.000000e+00
-1.260000e+00 1.923750e-01 0.000000e+00
-1.176000e+00 1.923750e-01 0.000000e+00
-1.092000e+00 1.923750e-01 0.000000e+00
-1.008000e+00 1.923750e-01 0.000000e+00
-1.344000e+00 2.565000e-01 0.000000e+00
-1.260000e+00 2.565000e-01 0.000000e+00
-1.176000e+00 2.565000e-01 0.000000e+00
-1.092000e+00 2.565000e-01 0.000000e+00
-1.008000e+00 2.565000e-01 0.000000e+00
-1.008000e+00 0.000000e+00 0.000000e+00
-9.240000e-01 0.000000e+00 0.000000e+00
-8.400000e-01 0.000000e+00 0.000000e+00
-7.560000e-01 0.000000e+00 0.000000e+00
-6.720000e-01 0.000000e+00 0.000000e+00
-1.008000e+00 6.412500e-02 0.000000e+00
-9.240000e-01 6.412500e-02 0.000000e+00
-8.400000e-01 6.412500e-02 0.000000e+00
-7.560000e-01 6.412500e-02 0.000000e+00
-6.720000e-01 6.412500e-02 0.000000e+00
-1.008000e+00 1.282500e-01 0.000000e+00
-9.240000e-01 1.282500e-01 0.000000e+00
-8.400000e-01 1.282500e-01 0.000000e+00
-7.560000e-01 1.282500e-01 0.000000e+00
-6.720000e-01 1.282500e-01 0.000000e+00
-1.008000e+00 1.923750e-01 0.000000e+00
-9.240000e-01 1.923750e-01 0.000000e+00
-8.400000e-01 1.923750e-01 0.000000e+00
-7.560000e-01 1.923750e-01 0.000000e+00
-6.720000e-01 1.923750e-01 0.000000e+00
-1.008000e+00 2.565000e-01 0.000000e+00
-9.240000e-01 2.565000e-01 0.000000e+00
-8.400000e-01 2.565000e-01 0.000000e+00
-7.560000e-01 2.565000e-01 0.000000e+00
-6.720000e-01 2.565000e-01 0.000000e+00
-6.720000e-01 0.000000e+00 0.000000e+00
-5.880000e-01 0.000000e+00 0.000000e+00
-5.040000e-01 0.000000e+00 0.000000e+00
-4.200000e-01 0.000000e+00 0.000000e+00
-3.360000e-01 0.000000e+00 0.000000e+00
-6.720000e-01 6.412500e-02 0.000000e+00
-5.880000e-01 6.412500e-02 0.000000e+00
-5.040000e-01 6.412500e-02 0.000000e+00
-4.200000e-01 6.412500e-02 0.000000e+00
-3.360000e-01 6.412500e-02 0.000000e+00
-6.720000e-01 1.282500e-01 0.000000e+00
-5.880000e-01 1.282500e-01 0.000000e+00
-5.040000e-01 1.282500e-01 0.000000e+00
-4.200000e-01 1.282500e-01 0.000000e+00
-3.360000e-01 1.282500e-01 0.000000e+00
-6.720000e-01 1.923750e-01 0.000000e+00
-5.880000e-01 1.923750e-01 0.000000e+00
-5.040000e-01 1.923750e-01 0.000000e+00
-4.200000e-01 1.923750e-01 0.000000e+00
-3.360000e-01 1.923750e-01 0.000000e+00
-6.720000e-01 2.565000e-01 0.000000e+00
-5.880000e-01 2.565000e-01 0.000000e+00
-5.040000e-01 2.565000e-01 0.000000e+00
-4.200000e-01 2.565000e-01 0.000000e+00
-3.360000e-01 2.565000e-01 0.000000e+00
-3.360000e-01 0.000000e+00 0.000000e+00
-2.520000e-01 0.000000e+00 0.000000e+00
-1.680000e-01 0.000000e+00 0.000000e+00
-8.400000e-02 0.000000e+00 0.000000e+00
-4.440890e-16 0.000000e+00 0.000000e+00
-3.360000e-01 6.412500e-02 0.000000e+00
-2.520000e-01 6.412500e-02 0.000000e+00
-1.680000e-01 6.412500e-02 0.000000e+00
-8.400000e-02 6.412500e-02 0.000000e+00
-4.440890e-16 6.412500e-02 0.000000e+00
-3.360000e-01 1.282500e-01 0.000000e+00
-2.520000e-01 1.282500e-01 0.000000e+00
-1.680000e-01 1.282500e-01 0.000000e+00
-8.400000e-02 1.282500e-01 0.000000e+00
-4.440890e-16 1.282500e-01 0.000000e+00
-3.360000e-01 1.923750e-01 0.000000e+00
-2.520000e-01 1.923750e-01 0.000000e+00
-1.680000e-01 1.923750e-01 0.000000e+00
[...]
<PointData>
<DataArray type="Float32" Name="V1" format="ascii">
0.000000e+00
0.000000e+00
0.000000e+00
0.000000e+00
0.000000e+00
6.347820e-02
5.973170e-02
5.551340e-02
5.082340e-02
4.566160e-02
1.013490e-01
9.788980e-02
9.318030e-02
8.722000e-02
8.000890e-02
1.136110e-01
1.144740e-01
1.130010e-01
1.091900e-01
1.030420e-01
1.002660e-01
1.094850e-01
1.149740e-01
1.167330e-01
1.147610e-01
0.000000e+00
0.000000e+00
0.000000e+00
0.000000e+00
0.000000e+00
4.566160e-02
3.990370e-02
3.542170e-02
3.221530e-02
3.028470e-02
8.000890e-02
7.163090e-02
6.490760e-02
5.983910e-02
5.642520e-02
1.030420e-01
9.518150e-02
8.845790e-02
8.287130e-02
7.842150e-02
1.147610e-01
1.105560e-01
1.060730e-01
1.013120e-01
9.627360e-02
0.000000e+00
0.000000e+00
0.000000e+00
0.000000e+00
0.000000e+00
3.028470e-02
2.851720e-02
2.702720e-02
2.581460e-02
2.487940e-02
5.642520e-02
5.337680e-02
5.084180e-02
4.882030e-02
4.731220e-02
7.842150e-02
7.457870e-02
7.144390e-02
6.901710e-02
6.729840e-02
9.627360e-02
9.212290e-02
8.883340e-02
8.640510e-02
8.483800e-02
0.000000e+00
0.000000e+00
0.000000e+00
0.000000e+00
0.000000e+00
2.487940e-02
2.411290e-02
2.366270e-02
2.352870e-02
2.371100e-02
4.731220e-02
4.611930e-02
4.545020e-02
4.530480e-02
4.568320e-02
6.729840e-02
6.601910e-02
6.536240e-02
6.532830e-02
6.591680e-02
8.483800e-02
8.381240e-02
8.339940e-02
8.359920e-02
8.441170e-02
0.000000e+00
0.000000e+00
0.000000e+00
0.000000e+00
0.000000e+00
2.371100e-02
2.401790e-02
2.449220e-02
2.513370e-02
2.594260e-02
4.568320e-02
4.630680e-02
4.724230e-02
4.848980e-02
5.004910e-02
6.591680e-02
6.686680e-02
6.825050e-02
7.006810e-02
7.231940e-02
8.441170e-02
8.569770e-02
8.751670e-02
8.986860e-02
9.275350e-02
0.000000e+00
0.000000e+00
0.000000e+00
0.000000e+00
0.000000e+00
2.594260e-02
2.690360e-02
2.810440e-02
2.954480e-02
3.122500e-02
5.004910e-02
5.188470e-02
5.413960e-02
5.681380e-02
5.990720e-02
7.231940e-02
7.494330e-02
7.810580e-02
8.180690e-02
8.604650e-02
9.275350e-02
9.607930e-02
1.000030e-01
1.045240e-01
1.096430e-01
0.000000e+00
0.000000e+00
0.000000e+00
0.000000e+00
0.000000e+00
3.122500e-02
3.310430e-02
3.533050e-02
3.790360e-02
4.082380e-02
5.990720e-02
6.335640e-02
6.740460e-02
7.205170e-02
7.729780e-02
8.604650e-02
9.075650e-02
9.622240e-02
1.024440e-01
1.094220e-01
1.096430e-01
1.153040e-01
1.217840e-01
1.290810e-01
1.371970e-01
0.000000e+00
0.000000e+00
0.000000e+00
0.000000e+00
0.000000e+00
4.082380e-02
4.398920e-02
4.771500e-02
5.200110e-02
5.684760e-02
7.729780e-02
8.297350e-02
8.959220e-02
9.715390e-02
1.056590e-01
1.094220e-01
1.169530e-01
1.256310e-01
1.354580e-01
1.464330e-01
1.371970e-01
1.459270e-01
1.558330e-01
1.669140e-01
1.791710e-01
0.000000e+00
0.000000e+00
0.000000e+00
0.000000e+00
0.000000e+00
5.684760e-02
6.193670e-02
6.789890e-02
7.473410e-02
8.244230e-02
1.056590e-01
1.145830e-01
1.249500e-01
1.367600e-01
1.500130e-01
1.464330e-01
1.579380e-01
1.711520e-01
1.860770e-01
2.027110e-01
1.791710e-01
1.920020e-01
2.065070e-01
2.226850e-01
2.405370e-01
0.000000e+00
0.000000e+00
0.000000e+00
0.000000e+00
0.000000e+00
8.244230e-02
9.036390e-02
9.937470e-02
1.094750e-01
1.206640e-01
1.500130e-01
1.636610e-01
1.790820e-01
1.962760e-01
2.152420e-01
2.027110e-01
2.198910e-01
2.391220e-01
2.604020e-01
2.837330e-01
2.405370e-01
2.590550e-01
2.794940e-01
3.018550e-01
3.261380e-01
0.000000e+00
0.000000e+00
0.000000e+00
0.000000e+00
0.000000e+00
1.206640e-01
1.326110e-01
1.449790e-01
1.577680e-01
1.709760e-01
2.152420e-01
2.355920e-01
2.566620e-01
2.784530e-01
3.009640e-01
2.837330e-01
3.089420e-01
3.350490e-01
3.620560e-01
3.899620e-01
3.261380e-01
3.526600e-01
3.801400e-01
4.085770e-01
4.379720e-01
0.000000e+00
0.000000e+00
0.000000e+00
0.000000e+00
0.000000e+00
1.709760e-01
1.864940e-01
2.001170e-01
2.118440e-01
2.216770e-01
3.009640e-01
3.274830e-01
3.512020e-01
3.721200e-01
3.902370e-01
3.899620e-01
4.229680e-01
4.532560e-01
4.808260e-01
5.056790e-01
4.379720e-01
4.729470e-01
5.062780e-01
5.379630e-01
5.680040e-01
0.000000e+00
0.000000e+00
0.000000e+00
0.000000e+00
0.000000e+00
2.216770e-01
2.323960e-01
2.387210e-01
2.406500e-01
2.381850e-01
3.902370e-01
4.101890e-01
4.234060e-01
4.298880e-01
4.296370e-01
5.056790e-01
5.333770e-01
5.540550e-01
5.677150e-01
5.743560e-01
5.680040e-01
6.019610e-01
6.306700e-01
6.541310e-01
6.723430e-01
0.000000e+00
0.000000e+00
0.000000e+00
0.000000e+00
0.000000e+00
2.381850e-01
2.276750e-01
2.137880e-01
1.965240e-01
1.758820e-01
4.296370e-01
4.165790e-01
3.973120e-01
3.718370e-01
3.401540e-01
5.743560e-01
5.667110e-01
5.505730e-01
5.259410e-01
4.928170e-01
6.723430e-01
6.780720e-01
6.735690e-01
6.588350e-01
6.338690e-01
0.000000e+00
0.000000e+00
0.000000e+00
0.000000e+00
0.000000e+00
1.758820e-01
1.477730e-01
1.223420e-01
9.959120e-02
7.951930e-02
3.401540e-01
2.934830e-01
2.492280e-01
2.073910e-01
1.679710e-01
4.928170e-01
4.371300e-01
3.806570e-01
3.233990e-01
2.653540e-01
6.338690e-01
5.787150e-01
5.166300e-01
4.476150e-01
3.716700e-01
0.000000e+00
0.000000e+00
0.000000e+00
0.000000e+00
0.000000e+00
7.951930e-02
6.415390e-02
5.007930e-02
3.729560e-02
2.580270e-02
1.679710e-01
1.358640e-01
1.065110e-01
7.991160e-02
5.606580e-02
2.653540e-01
2.151310e-01
1.692950e-01
1.278480e-01
9.078950e-02
3.716700e-01
3.019530e-01
2.384320e-01
1.811050e-01
1.299740e-01
0.000000e+00
0.000000e+00
0.000000e+00
0.000000e+00
0.000000e+00
2.580270e-02
1.800780e-02
1.084310e-02
4.308550e-03
-1.595940e-03
5.606580e-02
3.994270e-02
2.570120e-02
1.334140e-02
2.863210e-03
9.078950e-02
6.580460e-02
4.457430e-02
2.709860e-02
1.337750e-02
1.299740e-01
9.559350e-02
6.746230e-02
4.558000e-02
2.994680e-02
0.000000e+00
0.000000e+00
0.000000e+00
0.000000e+00
0.000000e+00
-1.595940e-03
-5.343310e-03
-7.461830e-03
-7.951470e-03
-6.812250e-03
2.863210e-03
-3.744370e-03
-7.417360e-03
-8.155740e-03
-5.959530e-03
1.337750e-02
4.796820e-03
1.333980e-04
-6.128160e-04
2.558180e-03
2.994680e-02
2.028030e-02
1.519040e-02
1.467730e-02
1.874090e-02
0.000000e+00
0.000000e+00
0.000000e+00
0.000000e+00
0.000000e+00
-6.812250e-03
-6.514350e-03
-5.958090e-03
-5.143470e-03
-4.070490e-03
-5.959530e-03
-5.225710e-03
-4.173620e-03
-2.803260e-03
-1.114620e-03
2.558180e-03
3.865920e-03
5.353400e-03
7.020640e-03
8.867630e-03
1.874090e-02
2.076050e-02
2.262300e-02
2.432820e-02
2.587620e-02
0.000000e+00
0.000000e+00
0.000000e+00
0.000000e+00
0.000000e+00
-4.070490e-03
-3.252340e-03
-3.679690e-03
-5.352540e-03
-8.270890e-03
-1.114620e-03
-5.743770e-05
-8.069210e-04
-3.363070e-03
-7.725880e-03
8.867630e-03
9.584720e-03
8.618320e-03
5.968420e-03
1.635040e-03
2.587620e-02
2.567410e-02
2.459600e-02
2.264190e-02
1.981190e-02
1.002660e-01
1.094850e-01
1.149740e-01
1.167330e-01
1.147610e-01
9.945850e-02
1.078900e-01
1.139540e-01
1.176510e-01
1.189810e-01
9.848610e-02
1.059510e-01
1.121120e-01
1.169690e-01
1.205220e-01
9.734850e-02
1.036690e-01
1.094480e-01
1.146860e-01
1.193820e-01
9.604590e-02
1.010440e-01
1.059630e-01
1.108020e-01
1.155620e-01
1.147610e-01
1.105560e-01
1.060730e-01
1.013120e-01
9.627360e-02
1.189810e-01
1.177060e-01
1.155390e-01
1.124780e-01
1.085260e-01
1.205220e-01
1.215310e-01
1.212680e-01
1.197340e-01
1.169290e-01
1.193820e-01
1.220280e-01
1.232610e-01
1.230800e-01
1.214850e-01
1.155620e-01
1.191990e-01
1.215160e-01
1.225140e-01
1.221920e-01
9.627360e-02
9.212290e-02
8.883340e-02
8.640510e-02
8.483800e-02
1.085260e-01
1.048740e-01
1.019660e-01
9.980390e-02
9.838620e-02
1.169290e-01
1.139650e-01
1.115900e-01
1.098060e-01
1.086130e-01
1.214850e-01
1.193960e-01
1.177050e-01
1.164120e-01
1.155170e-01
1.221920e-01
1.211680e-01
1.203110e-01
1.196220e-01
1.191000e-01
8.483800e-02
8.381240e-02
8.339940e-02
8.359920e-02
8.441170e-02
9.838620e-02
9.757810e-02
9.738450e-02
9.780540e-02
9.884080e-02
1.086130e-01
1.080430e-01
1.080650e-01
1.086800e-01
1.098880e-01
1.155170e-01
1.152060e-01
1.154410e-01
1.162240e-01
1.175540e-01
1.191000e-01
1.190680e-01
1.195130e-01
1.204360e-01
1.218370e-01
8.441170e-02
8.569770e-02
8.751670e-02
8.986860e-02
9.275350e-02
9.884080e-02
1.003600e-01
1.024480e-01
1.051050e-01
1.083300e-01
1.098880e-01
1.115750e-01
1.138400e-01
1.166850e-01
1.201090e-01
1.175540e-01
1.193420e-01
1.216940e-01
1.246090e-01
1.280880e-01
1.218370e-01
1.236610e-01
1.260080e-01
1.288780e-01
1.322700e-01
9.275350e-02
9.607930e-02
1.000030e-01
1.045240e-01
1.096430e-01
1.083300e-01
1.120250e-01
1.163330e-01
1.212560e-01
1.267940e-01
1.201090e-01
1.240080e-01
1.285200e-01
1.336430e-01
1.393790e-01
1.280880e-01
1.320300e-01
1.365620e-01
1.416850e-01
1.473990e-01
1.322700e-01
1.360900e-01
1.404610e-01
1.453820e-01
1.508530e-01
1.096430e-01
1.153040e-01
1.217840e-01
1.290810e-01
1.371970e-01
1.267940e-01
1.328600e-01
1.397420e-01
1.474410e-01
1.559570e-01
1.393790e-01
1.456160e-01
1.526490e-01
1.604790e-01
1.691050e-01
1.473990e-01
1.535730e-01
1.605050e-01
1.681940e-01
1.766410e-01
1.508530e-01
1.567310e-01
1.633090e-01
1.705870e-01
1.785660e-01
1.371970e-01
1.459270e-01
1.558330e-01
1.669140e-01
1.791710e-01
1.559570e-01
1.650280e-01
1.752510e-01
1.866270e-01
1.991560e-01
1.691050e-01
1.782210e-01
1.884540e-01
1.998030e-01
2.122670e-01
1.766410e-01
1.855090e-01
1.954420e-01
2.064420e-01
2.185070e-01
1.785660e-01
1.868900e-01
1.962160e-01
2.065440e-01
2.178740e-01
1.791710e-01
1.920020e-01
2.065070e-01
2.226850e-01
2.405370e-01
1.991560e-01
2.121170e-01
2.267370e-01
2.430160e-01
2.609540e-01
2.122670e-01
2.250330e-01
2.394410e-01
2.554920e-01
2.731860e-01
2.185070e-01
2.307500e-01
2.446190e-01
2.601130e-01
2.772340e-01
2.178740e-01
2.292690e-01
2.422710e-01
2.568810e-01
2.730970e-01
2.405370e-01
2.590550e-01
2.794940e-01
3.018550e-01
3.261380e-01
2.609540e-01
2.793370e-01
2.997280e-01
3.221260e-01
3.465310e-01
2.731860e-01
2.910950e-01
3.111190e-01
3.332560e-01
3.575060e-01
2.772340e-01
2.943300e-01
3.136670e-01
3.352440e-01
3.590630e-01
2.730970e-01
2.890400e-01
3.073720e-01
3.280920e-01
3.512010e-01
3.261380e-01
3.526600e-01
3.801400e-01
4.085770e-01
4.379720e-01
3.465310e-01
3.730290e-01
4.007660e-01
4.297430e-01
4.599590e-01
3.575060e-01
3.836450e-01
4.113210e-01
4.405360e-01
4.712880e-01
3.590630e-01
3.845080e-01
4.118050e-01
4.409550e-01
4.719570e-01
3.512010e-01
3.756180e-01
4.022180e-01
4.310010e-01
4.619660e-01
4.379720e-01
4.729470e-01
5.062780e-01
5.379630e-01
5.680040e-01
4.599590e-01
4.963410e-01
5.314780e-01
5.653730e-01
5.980240e-01
4.712880e-01
5.088080e-01
5.454370e-01
5.811750e-01
6.160220e-01
4.719570e-01
5.103480e-01
5.481530e-01
5.853700e-01
6.220000e-01
4.619660e-01
5.009630e-01
5.396260e-01
5.779580e-01
6.159560e-01
5.680040e-01
6.019610e-01
6.306700e-01
6.541310e-01
6.723430e-01
5.980240e-01
6.368540e-01
6.708540e-01
7.000250e-01
7.243670e-01
6.160220e-01
6.593280e-01
6.980570e-01
7.322090e-01
7.617850e-01
6.220000e-01
6.693840e-01
7.122790e-01
7.506830e-01
7.845970e-01
6.159560e-01
6.670220e-01
7.135190e-01
7.554460e-01
7.928050e-01
6.723430e-01
6.780720e-01
6.735690e-01
6.588350e-01
6.338690e-01
7.243670e-01
7.397470e-01
7.457170e-01
7.422780e-01
7.294280e-01
7.617850e-01
7.849240e-01
7.994200e-01
8.052720e-01
8.024790e-01
7.845970e-01
8.136040e-01
8.346770e-01
8.478170e-01
8.530250e-01
7.928050e-01
8.257850e-01
8.514880e-01
8.699140e-01
8.810630e-01
6.338690e-01
5.787150e-01
5.166300e-01
4.476150e-01
3.716700e-01
7.294280e-01
6.864430e-01
6.318340e-01
5.656010e-01
4.877440e-01
8.024790e-01
7.700520e-01
7.236960e-01
6.634110e-01
5.891970e-01
8.530250e-01
8.295420e-01
7.922150e-01
7.410440e-01
6.760290e-01
8.810630e-01
8.649130e-01
8.373920e-01
7.985020e-01
7.482410e-01
3.716700e-01
3.019530e-01
2.384320e-01
1.811050e-01
1.299740e-01
4.877440e-01
4.017310e-01
3.215800e-01
2.472920e-01
1.788650e-01
5.891970e-01
4.949180e-01
4.040770e-01
3.166730e-01
2.327060e-01
6.760290e-01
5.815140e-01
4.859200e-01
3.892480e-01
2.914970e-01
7.482410e-01
6.615190e-01
5.671110e-01
4.650180e-01
3.552380e-01
1.299740e-01
9.559350e-02
6.746230e-02
4.558000e-02
2.994680e-02
1.788650e-01
1.354070e-01
9.986980e-02
7.225240e-02
5.255500e-02
2.327060e-01
1.798380e-01
1.363920e-01
1.023680e-01
7.776570e-02
2.914970e-01
2.288850e-01
1.770280e-01
1.359260e-01
1.055790e-01
3.552380e-01
2.825490e-01
2.217790e-01
1.729270e-01
1.359940e-01
2.994680e-02
2.028030e-02
1.519040e-02
1.467730e-02
1.874090e-02
5.255500e-02
3.988160e-02
3.296780e-02
3.181360e-02
3.641910e-02
7.776570e-02
6.111050e-02
5.152360e-02
4.900500e-02
5.355460e-02
1.055790e-01
8.396720e-02
7.085810e-02
6.625140e-02
7.014720e-02
1.359940e-01
1.084510e-01
9.097110e-02
8.355300e-02
8.619720e-02
1.874090e-02
2.076050e-02
2.262300e-02
2.432820e-02
2.587620e-02
3.641910e-02
3.874510e-02
4.065500e-02
4.214880e-02
4.322650e-02
5.355460e-02
5.593990e-02
5.772460e-02
5.890860e-02
5.949190e-02
7.014720e-02
7.234510e-02
7.383190e-02
7.460770e-02
7.467250e-02
8.619720e-02
8.796050e-02
8.897680e-02
8.924600e-02
8.876820e-02
2.587620e-02
2.567410e-02
2.459600e-02
2.264190e-02
1.981190e-02
4.322650e-02
4.274080e-02
4.140560e-02
3.922110e-02
3.618720e-02
5.949190e-02
5.861000e-02
5.694410e-02
5.449410e-02
5.126000e-02
7.467250e-02
7.328190e-02
7.121140e-02
6.846080e-02
6.503020e-02
8.876820e-02
8.675650e-02
8.420750e-02
8.112120e-02
7.749770e-02
9.604590e-02
1.010440e-01
1.059630e-01
1.108020e-01
1.155620e-01
9.458900e-02
9.907330e-02
1.035370e-01
1.079790e-01
1.124010e-01
9.299440e-02
9.709880e-02
1.011690e-01
1.052060e-01
1.092090e-01
9.126190e-02
9.512100e-02
9.886140e-02
1.024830e-01
1.059870e-01
8.939170e-02
9.313970e-02
9.661270e-02
9.981060e-02
1.027340e-01
1.155620e-01
1.191990e-01
1.215160e-01
1.225140e-01
1.221920e-01
1.124010e-01
1.160850e-01
1.187110e-01
1.202770e-01
1.207840e-01
1.092090e-01
1.127580e-01
1.154920e-01
1.174090e-01
1.185110e-01
1.059870e-01
1.092170e-01
1.118580e-01
1.139110e-01
1.153750e-01
1.027340e-01
1.054620e-01
1.078110e-01
1.097820e-01
1.113740e-01
1.221920e-01
1.211680e-01
1.203110e-01
1.196220e-01
1.191000e-01
1.207840e-01
1.205560e-01
1.203730e-01
1.202350e-01
1.201410e-01
1.185110e-01
1.189110e-01
1.192740e-01
1.196000e-01
1.198900e-01
1.153750e-01
1.162310e-01
1.170120e-01
1.177180e-01
1.183470e-01
1.113740e-01
1.125180e-01
1.135890e-01
1.145870e-01
1.155120e-01
1.191000e-01
1.190680e-01
1.195130e-01
1.204360e-01
1.218370e-01
1.201410e-01
1.204070e-01
1.210740e-01
1.221430e-01
1.236130e-01
1.198900e-01
1.204340e-01
1.213090e-01
1.225150e-01
1.240510e-01
1.183470e-01
1.191490e-01
1.202170e-01
1.215520e-01
1.231520e-01
1.155120e-01
1.165520e-01
1.177990e-01
1.192530e-01
1.209150e-01
1.218370e-01
1.236610e-01
1.260080e-01
1.288780e-01
1.322700e-01
1.236130e-01
1.254630e-01
1.277930e-01
1.306020e-01
1.338910e-01
1.240510e-01
1.259250e-01
1.282340e-01
1.309800e-01
1.341610e-01
1.231520e-01
1.250460e-01
1.273320e-01
1.300100e-01
1.330800e-01
1.209150e-01
1.228260e-01
1.250860e-01
1.276930e-01
1.306480e-01
1.322700e-01
1.360900e-01
1.404610e-01
1.453820e-01
1.508530e-01
1.338910e-01
1.375700e-01
1.417670e-01
1.464840e-01
1.517190e-01
1.341610e-01
1.376940e-01
1.417140e-01
1.462220e-01
1.512170e-01
1.330800e-01
1.364620e-01
1.403010e-01
1.445970e-01
1.493490e-01
1.306480e-01
1.338750e-01
1.375290e-01
1.416090e-01
1.461140e-01
1.508530e-01
1.567310e-01
1.633090e-01
1.705870e-01
1.785660e-01
1.517190e-01
1.573140e-01
1.635760e-01
1.705050e-01
1.780990e-01
1.512170e-01
1.565290e-01
1.624740e-01
1.690520e-01
1.762630e-01
1.493490e-01
1.543750e-01
1.600010e-01
1.662280e-01
1.730560e-01
1.461140e-01
1.508530e-01
1.561590e-01
1.620350e-01
1.684790e-01
1.785660e-01
1.868900e-01
1.962160e-01
2.065440e-01
2.178740e-01
1.780990e-01
1.859810e-01
1.948370e-01
2.046670e-01
2.154730e-01
1.762630e-01
1.837030e-01
1.920870e-01
2.014140e-01
2.116840e-01
1.730560e-01
1.800570e-01
1.879660e-01
1.967820e-01
2.065060e-01
1.684790e-01
1.750420e-01
1.824740e-01
1.907730e-01
1.999410e-01
2.178740e-01
2.292690e-01
2.422710e-01
2.568810e-01
2.730970e-01
2.154730e-01
2.262490e-01
2.386530e-01
2.526860e-01
2.683460e-01
2.116840e-01
2.218340e-01
2.336100e-01
2.470130e-01
2.620430e-01
2.065060e-01
2.160220e-01
2.271410e-01
2.398630e-01
2.541880e-01
1.999410e-01
2.088140e-01
2.192450e-01
2.312350e-01
2.447820e-01
2.730970e-01
2.890400e-01
3.073720e-01
3.280920e-01
3.512010e-01
2.683460e-01
2.834290e-01
3.011020e-01
3.213650e-01
3.442190e-01
2.620430e-01
2.761760e-01
2.930730e-01
3.127340e-01
3.351570e-01
2.541880e-01
2.672820e-01
2.832850e-01
3.021960e-01
3.240170e-01
2.447820e-01
2.567460e-01
2.717370e-01
2.897540e-01
3.107970e-01
3.512010e-01
3.756180e-01
4.022180e-01
4.310010e-01
4.619660e-01
3.442190e-01
3.677900e-01
3.939590e-01
4.227260e-01
4.540910e-01
3.351570e-01
3.575490e-01
3.829660e-01
4.114090e-01
4.428770e-01
3.240170e-01
3.448950e-01
3.692400e-01
3.970500e-01
4.283260e-01
3.107970e-01
3.298290e-01
3.527790e-01
3.796490e-01
4.104380e-01
4.619660e-01
5.009630e-01
5.396260e-01
5.779580e-01
6.159560e-01
4.540910e-01
4.939090e-01
5.336150e-01
5.732080e-01
6.126890e-01
4.428770e-01
4.830790e-01
5.232530e-01
5.634000e-01
6.035210e-01
4.283260e-01
4.684720e-01
5.085420e-01
5.485350e-01
5.884520e-01
4.104380e-01
4.500890e-01
4.894800e-01
5.286120e-01
5.674830e-01
6.159560e-01
6.670220e-01
7.135190e-01
7.554460e-01
7.928050e-01
6.126890e-01
6.678950e-01
7.180560e-01
7.631720e-01
8.032430e-01
6.035210e-01
6.623450e-01
7.155890e-01
7.632500e-01
8.053310e-01
5.884520e-01
6.503740e-01
7.061180e-01
7.556820e-01
7.990670e-01
5.674830e-01
6.319810e-01
6.896420e-01
7.404660e-01
7.844520e-01
7.928050e-01
8.257850e-01
8.514880e-01
8.699140e-01
8.810630e-01
8.032430e-01
8.400210e-01
8.692670e-01
8.909810e-01
9.051630e-01
8.053310e-01
8.454890e-01
8.779020e-01
9.025680e-01
9.194880e-01
7.990670e-01
8.421900e-01
8.773930e-01
9.046750e-01
9.240360e-01
7.844520e-01
8.301240e-01
8.677400e-01
8.973020e-01
9.188080e-01
8.810630e-01
8.649130e-01
8.373920e-01
7.985020e-01
7.482410e-01
9.051630e-01
8.902870e-01
8.665900e-01
8.340710e-01
7.927300e-01
9.194880e-01
9.052600e-01
8.843920e-01
8.568840e-01
8.227360e-01
9.240360e-01
9.098300e-01
8.907990e-01
8.669420e-01
8.382580e-01
9.188080e-01
9.039990e-01
8.858100e-01
8.642430e-01
8.392970e-01
7.482410e-01
6.615190e-01
5.671110e-01
4.650180e-01
3.552380e-01
7.927300e-01
7.161850e-01
6.278040e-01
5.275900e-01
4.155410e-01
8.227360e-01
7.552670e-01
6.735050e-01
5.774520e-01
4.671070e-01
8.382580e-01
7.787650e-01
7.042130e-01
6.146040e-01
5.099350e-01
8.392970e-01
7.866800e-01
7.199290e-01
6.390450e-01
5.440270e-01
3.552380e-01
2.825490e-01
2.217790e-01
1.729270e-01
1.359940e-01
4.155410e-01
3.352700e-01
2.669820e-01
2.106750e-01
1.663490e-01
4.671070e-01
3.826750e-01
3.093460e-01
2.471190e-01
1.959960e-01
5.099350e-01
4.247620e-01
3.488710e-01
2.822610e-01
2.249330e-01
5.440270e-01
4.615330e-01
3.855570e-01
3.161000e-01
2.531620e-01
1.359940e-01
1.084510e-01
9.097110e-02
8.355300e-02
8.619720e-02
1.663490e-01
1.331910e-01
1.111990e-01
1.003750e-01
1.007180e-01
1.959960e-01
1.579540e-01
1.318270e-01
1.176160e-01
1.153200e-01
2.249330e-01
1.827400e-01
1.528540e-01
1.352760e-01
1.300050e-01
2.531620e-01
2.075500e-01
1.742810e-01
1.533540e-01
1.447700e-01
8.619720e-02
8.796050e-02
8.897680e-02
8.924600e-02
8.876820e-02
1.007180e-01
1.017640e-01
1.021040e-01
1.017370e-01
1.006640e-01
1.153200e-01
1.151500e-01
1.144290e-01
1.131580e-01
1.113370e-01
1.300050e-01
1.281170e-01
1.259520e-01
1.235090e-01
1.207870e-01
1.447700e-01
1.406670e-01
1.366730e-01
1.327900e-01
1.290160e-01
8.876820e-02
8.675650e-02
8.420750e-02
8.112120e-02
7.749770e-02
1.006640e-01
9.792970e-02
9.486880e-02
9.148080e-02
8.776560e-02
1.113370e-01
1.078020e-01
1.041760e-01
1.004590e-01
9.665210e-02
1.207870e-01
1.163720e-01
1.121280e-01
1.080570e-01
1.041570e-01
1.290160e-01
1.236410e-01
1.187270e-01
1.142730e-01
1.102810e-01
8.939170e-02
9.313970e-02
9.661270e-02
9.981060e-02
1.027340e-01
8.740010e-02
9.088320e-02
9.406630e-02
9.694920e-02
9.953210e-02
8.530680e-02
8.852230e-02
9.142550e-02
9.401660e-02
9.629540e-02
8.311190e-02
8.605690e-02
8.869050e-02
9.101270e-02
9.302340e-02
8.081530e-02
8.348710e-02
8.586120e-02
8.793750e-02
8.971600e-02
1.027340e-01
1.054620e-01
1.078110e-01
1.097820e-01
1.113740e-01
9.953210e-02