<?xml version="1.0"?>
<VTKFile type="UnstructuredGrid" version="0.1" byte_order="LittleEndian" compressor="vtkZLibDataCompressor">
<UnstructuredGrid>
<Piece NumberOfPoints="10000" NumberOfCells="6400">
<Points>
<DataArray type="Float32" NumberOfComponents="3" format="ascii">
-3.360000e+00 0.000000e+00 0.000000e+00
-3.276000e+00 0.000000e+00 0.000000e+00
-3.192000e+00 0.000000e+00 0.000000e+00
-3.108000e+00 0.000000e+00 0.000000e+00
-3.024000e+00 0.000000e+00 0.000000e+00
-3.360000e+00 6.412500e-02 0.000000e+00
-3.276000e+00 6.412500e-02 0.000000e+00
-3.192000e+00 6.412500e-02 0.000000e+00
-3.108000e+00 6.412500e-02 0.000000e+00
-3.024000e+00 6.412500e-02 0.000000e+00
-3.360000e+00 1.282500e-01 0.000000e+00
-3.276000e+00 1.282500e-01 0.000000e+00
-3.192000e+00 1.282500e-01 0.000000e+00
-3.108000e+00 1.282500e-01 0.000000e+00
-3.024000e+00 1.282500e-01 0.000000e+00
-3.360000e+00 1.923750e-01 0.000000e+00
-3.276000e+00 1.923750e-01 0.000000e+00
-3.192000e+00 1.923750e-01 0.000000e+00
-3.108000e+00 1.923750e-01 0.000000e+00
-3.024000e+00 1.923750e-01 0.000000e+00
-3.360000e+00 2.565000e-01 0.000000e+00
-3.276000e+00 2.565000e-01 0.000000e+00
-3.192000e+00 2.565000e-01 0.000000e+00
-3.108000e+00 2.565000e-01 0.000000e+00
-3.024000e+00 2.565000e-01 0.000000e+00
-3.024000e+00 0.000000e+00 0.000000e+00
-2.940000e+00 0.000000e+00 0.000000e+00
-2.856000e+00 0.000000e+00 0.000000e+00
-2.772000e+00 0.000000e+00 0.000000e+00
-2.688000e+00 0.000000e+00 0.000000e+00
-3.024000e+00 6.412500e-02 0.000000e+00
-2.940000e+00 6.412500e-02 0.000000e+00
-2.856000e+00 6.412500e-02 0.000000e+00
-2.772000e+00 6.412500e-02 0.000000e+00
-2.688000e+00 6.412500e-02 0.000000e+00
-3.024000e+00 1.282500e-01 0.000000e+00
-2.940000e+00 1.282500e-01 0.000000e+00
-2.856000e+00 1.282500e-01 0.000000e+00
-2.772000e+00 1.282500e-01 0.000000e+00
-2.688000e+00 1.282500e-01 0.000000e+00
-3.024000e+00 1.923750e-01 0.000000e+00
-2.940000e+00 1.923750e-01 0.000000e+00
-2.856000e+00 1.923750e-01 0.000000e+00
-2.772000e+00 1.923750e-01 0.000000e+00
-2.688000e+00 1.923750e-01 0.000000e+00
-3.024000e+00 2.565000e-01 0.000000e+00
-2.940000e+00 2.565000e-01 0.000000e+00
-2.856000e+00 2.565000e-01 0.000000e+00
-2.772000e+00 2.565000e-01 0.000000e+00
-2.688000e+00 2.565000e-01 0.000000e+00
-2.688000e+00 0.000000e+00 0.000000e+00
-2.604000e+00 0.000000e+00 0.000000e+00
-2.520000e+00 0.000000e+00 0.000000e+00
-2.436000e+00 0.000000e+00 0.000000e+00
-2.352000e+00 0.000000e+00 0.000000e+00
-2.688000e+00 6.412500e-02 0.000000e+00
-2.604000e+00 6.412500e-02 0.000000e+00
-2.520000e+00 6.412500e-02 0.000000e+00
-2.436000e+00 6.412500e-02 0.000000e+00
-2.352000e+00 6.412500e-02 0.000000e+00
-2.688000e+00 1.282500e-01 0.000000e+00
-2.604000e+00 1.282500e-01 0.000000e+00
-2.520000e+00 1.282500e-01 0.000000e+00
-2.436000e+00 1.282500e-01 0.000000e+00
-2.352000e+00 1.282500e-01 0.000000e+00
-2.688000e+00 1.923750e-01 0.000000e+00
-2.604000e+00 1.923750e-01 0.000000e+00
-2.520000e+00 1.923750e-01 0.000000e+00
-2.436000e+00 1.923750e-01 0.000000e+00
-2.352000e+00 1.923750e-01 0.000000e+00
-2.688000e+00 2.565000e-01 0.000000e+00
-2.604000e+00 2.565000e-01 0.000000e+00
-2.520000e+00 2.565000e-01 0.000000e+00
-2.436000e+00 2.565000e-01 0.000000e+00
-2.352000e+00 2.565000e-01 0.000000e+00
-2.352000e+00 0.000000e+00 0.000000e+00
-2.268000e+00 0.000000e+00 0.000000e+00
-2.184000e+00 0.000000e+00 0.000000e+00
-2.100000e+00 0.000000e+00 0.000000e+00
-2.016000e+00 0.000000e+00 0.000000e+00
-2.352000e+00 6.412500e-02 0.000000e+00
-2.268000e+00 6.412500e-02 0.000000e+00
-2.184000e+00 6.412500e-02 0.000000e+00
-2.100000e+00 6.412500e-02 0.000000e+00
-2.016000e+00 6.412500e-02 0.000000e+00
-2.352000e+00 1.282500e-01 0.000000e+00
-2.268000e+00 1.282500e-01 0.000000e+00
-2.184000e+00 1.282500e-01 0.000000e+00
-2.100000e+00 1.282500e-01 0.000000e+00
-2.016000e+00 1.282500e-01 0.000000e+00
-2.352000e+00 1.923750e-01 0.000000e+00
-2.268000e+00 1.923750e-01 0.000000e+00
-2.184000e+00 1.923750e-01 0.000000e+00
-2.100000e+00 1.923750e-01 0.000000e+00
-2.016000e+00 1.923750e-01 0.000000e+00
-2.352000e+00 2.565000e-01 0.000000e+00
-2.268000e+00 2.565000e-01 0.000000e+00
-2.184000e+00 2.565000e-01 0.000000e+00
-2.100000e+00 2.565000e-01 0.000000e+00
-2.016000e+00 2.565000e-01 0.000000e+00
-2.016000e+00 0.000000e+00 0.000000e+00
-1.932000e+00 0.000000e+00 0.000000e+00
-1.848000e+00 0.000000e+00 0.000000e+00
-1.764000e+00 0.000000e+00 0.000000e+00
-1.680000e+00 0.000000e+00 0.000000e+00
-2.016000e+00 6.412500e-02 0.000000e+00
-1.932000e+00 6.412500e-02 0.000000e+00
-1.848000e+00 6.412500e-02 0.000000e+00
-1.764000e+00 6.412500e-02 0.000000e+00
-1.680000e+00 6.412500e-02 0.000000e+00
-2.016000e+00 1.282500e-01 0.000000e+00
-1.932000e+00 1.282500e-01 0.000000e+00
-1.848000e+00 1.282500e-01 0.000000e+00
-1.764000e+00 1.282500e-01 0.000000e+00
-1.680000e+00 1.282500e-01 0.000000e+00
-2.016000e+00 1.923750e-01 0.000000e+00
-1.932000e+00 1.923750e-01 0.000000e+00
-1.848000e+00 1.923750e-01 0.000000e+00
-1.764000e+00 1.923750e-01 0.000000e+00
-1.680000e+00 1.923750e-01 0.000000e+00
-2.016000e+00 2.565000e-01 0.000000e+00
-1.932000e+00 2.565000e-01 0.000000e+00
-1.848000e+00 2.565000e-01 0.000000e+00
-1.764000e+00 2.565000e-01 0.000000e+00
-1.680000e+00 2.565000e-01 0.000000e+00
-1.680000e+00 0.000000e+00 0.000000e+00
-1.596000e+00 0.000000e+00 0.000000e+00
-1.512000e+00 0.000000e+00 0.000000e+00
-1.428000e+00 0.000000e+00 0.000000e+00
-1.344000e+00 0.000000e+00 0.000000e+00
-1.680000e+00 6.412500e-02 0.000000e+00
-1.596000e+00 6.412500e-02 0.000000e+00
-1.512000e+00 6.412500e-02 0.000000e+00
-1.428000e+00 6.412500e-02 0.000000e+00
-1.344000e+00 6.412500e-02 0.000000e+00
-1.680000e+00 1.282500e-01 0.000000e+00
-1.596000e+00 1.282500e-01 0.000000e+00
-1.512000e+00 1.282500e-01 0.000000e+00
-1.428000e+00 1.282500e-01 0.000000e+00
-1.344000e+00 1.282500e-01 0.000000e+00
-1.680000e+00 1.923750e-01 0.000000e+00
-1.596000e+00 1.923750e-01 0.000000e+00
-1.512000e+00 1.923750e-01 0.000000e+00
-1.428000e+00 1.923750e-01 0.000000e+00
-1.344000e+00 1.923750e-01 0.000000e+00
-1.680000e+00 2.565000e-01 0.000000e+00
-1.596000e+00 2.565000e-01 0.000000e+00
-1.512000e+00 2.565000e-01 0.000000e+00
-1.428000e+00 2.565000e-01 0.000000e+00
-1.344000e+00 2.565000e-01 0.000000e+00
-1.344000e+00 0.000000e+00 0.000000e+00
-1.260000e+00 0.000000e+00 0.000000e+00
-1.176000e+00 0.000000e+00 0.000000e+00
-1.092000e+00 0.000000e+00 0.000000e+00
-1.008000e+00 0.000000e+00 0.000000e+00
-1.344000e+00 6.412500e-02 0.000000e+00
-1.260000e+00 6.412500e-02 0.000000e+00
-1.176000e+00 6.412500e-02 0.000000e+00
-1.092000e+00 6.412500e-02 0.000000e+00
-1.008000e+00 6.412500e-02 0.000000e+00
-1.344000e+00 1.282500e-01 0.000000e+00
-1.260000e+00 1.282500e-01 0.000000e+00
-1.176000e+00 1.282500e-01 0.000000e+00
-1.092000e+00 1.282500e-01 0.000000e+00
-1.008000e+00 1.282500e-01 0.000000e+00
-1.344000e+00 1.923750e-01 0.000000e+00
-1.260000e+00 1.923750e-01 0.000000e+00
-1.176000e+00 1.923750e-01 0.000000e+00
-1.092000e+00 1.923750e-01 0.000000e+00
-1.008000e+00 1.923750e-01 0.000000e+00
-1.344000e+00 2.565000e-01 0.000000e+00
-1.260000e+00 2.565000e-01 0.000000e+00
-1.176000e+00 2.565000e-01 0.000000e+00
-1.092000e+00 2.565000e-01 0.000000e+00
-1.008000e+00 2.565000e-01 0.000000e+00
-1.008000e+00 0.000000e+00 0.000000e+00
-9.240000e-01 0.000000e+00 0.000000e+00
-8.400000e-01 0.000000e+00 0.000000e+00
-7.560000e-01 0.000000e+00 0.000000e+00
-6.720000e-01 0.000000e+00 0.000000e+00
-1.008000e+00 6.412500e-02 0.000000e+00
-9.240000e-01 6.412500e-02 0.000000e+00
-8.400000e-01 6.412500e-02 0.000000e+00
-7.560000e-01 6.412500e-02 0.000000e+00
-6.720000e-01 6.412500e-02 0.000000e+00
-1.008000e+00 1.282500e-01 0.000000e+00
-9.240000e-01 1.282500e-01 0.000000e+00
-8.400000e-01 1.282500e-01 0.000000e+00
-7.560000e-01 1.282500e-01 0.000000e+00
-6.720000e-01 1.282500e-01 0.000000e+00
-1.008000e+00 1.923750e-01 0.000000e+00
-9.240000e-01 1.923750e-01 0.000000e+00
-8.400000e-01 1.923750e-01 0.000000e+00
-7.560000e-01 1.923750e-01 0.000000e+00
-6.720000e-01 1.923750e-01 0.000000e+00
-1.008000e+00 2.565000e-01 0.000000e+00
-9.240000e-01 2.565000e-01 0.000000e+00
-8.400000e-01 2.565000e-01 0.000000e+00
-7.560000e-01 2.565000e-01 0.000000e+00
-6.720000e-01 2.565000e-01 0.000000e+00
-6.720000e-01 0.000000e+00 0.000000e+00
-5.880000e-01 0.000000e+00 0.000000e+00
-5.040000e-01 0.000000e+00 0.000000e+00
-4.200000e-01 0.000000e+00 0.000000e+00
-3.360000e-01 0.000000e+00 0.000000e+00
-6.720000e-01 6.412500e-02 0.000000e+00
-5.880000e-01 6.412500e-02 0.000000e+00
-5.040000e-01 6.412500e-02 0.000000e+00
-4.200000e-01 6.412500e-02 0.000000e+00
-3.360000e-01 6.412500e-02 0.000000e+00
-6.720000e-01 1.282500e-01 0.000000e+00
-5.880000e-01 1.282500e-01 0.000000e+00
-5.040000e-01 1.282500e-01 0.000000e+00
-4.200000e-01 1.282500e-01 0.000000e+00
-3.360000e-01 1.282500e-01 0.000000e+00
-6.720000e-01 1.923750e-01 0.000000e+00
-5.880000e-01 1.923750e-01 0.000000e+00
-5.040000e-01 1.923750e-01 0.000000e+00
-4.200000e-01 1.923750e-01 0.000000e+00
-3.360000e-01 1.923750e-01 0.000000e+00
-6.720000e-01 2.565000e-01 0.000000e+00
-5.880000e-01 2.565000e-01 0.000000e+00
-5.040000e-01 2.565000e-01 0.000000e+00
-4.200000e-01 2.565000e-01 0.000000e+00
-3.360000e-01 2.565000e-01 0.000000e+00
-3.360000e-01 0.000000e+00 0.000000e+00
-2.520000e-01 0.000000e+00 0.000000e+00
-1.680000e-01 0.000000e+00 0.000000e+00
-8.400000e-02 0.000000e+00 0.000000e+00
-4.440890e-16 0.000000e+00 0.000000e+00
-3.360000e-01 6.412500e-02 0.000000e+00
-2.520000e-01 6.412500e-02 0.000000e+00
-1.680000e-01 6.412500e-02 0.000000e+00
-8.400000e-02 6.412500e-02 0.000000e+00
-4.440890e-16 6.412500e-02 0.000000e+00
-3.360000e-01 1.282500e-01 0.000000e+00
-2.520000e-01 1.282500e-01 0.000000e+00
-1.680000e-01 1.282500e-01 0.000000e+00
-8.400000e-02 1.282500e-01 0.000000e+00
-4.440890e-16 1.282500e-01 0.000000e+00
-3.360000e-01 1.923750e-01 0.000000e+00
-2.520000e-01 1.923750e-01 0.000000e+00
-1.680000e-01 1.923750e-01 0.000000e+00
[...]
<PointData>
<DataArray type="Float32" Name="V1" format="ascii">
0.000000e+00
0.000000e+00
0.000000e+00
0.000000e+00
0.000000e+00
6.347820e-02
5.968270e-02
5.541070e-02
5.066230e-02
4.543740e-02
1.013490e-01
9.780990e-02
9.301240e-02
8.695630e-02
7.964140e-02
1.136110e-01
1.143820e-01
1.128050e-01
1.088820e-01
1.026120e-01
1.002660e-01
1.093980e-01
1.147890e-01
1.164390e-01
1.143490e-01
0.000000e+00
0.000000e+00
0.000000e+00
0.000000e+00
0.000000e+00
4.543740e-02
3.970650e-02
3.533870e-02
3.233410e-02
3.069280e-02
7.964140e-02
7.131160e-02
6.479220e-02
6.008310e-02
5.718440e-02
1.026120e-01
9.481540e-02
8.836040e-02
8.324690e-02
7.947480e-02
1.143490e-01
1.102180e-01
1.060430e-01
1.018250e-01
9.756390e-02
0.000000e+00
0.000000e+00
0.000000e+00
0.000000e+00
0.000000e+00
3.069280e-02
2.926570e-02
2.813630e-02
2.730470e-02
2.677100e-02
5.718440e-02
5.475450e-02
5.287820e-02
5.155570e-02
5.078680e-02
7.947480e-02
7.646640e-02
7.422580e-02
7.275290e-02
7.204770e-02
9.756390e-02
9.440150e-02
9.217890e-02
9.089620e-02
9.055340e-02
0.000000e+00
0.000000e+00
0.000000e+00
0.000000e+00
0.000000e+00
2.677100e-02
2.638350e-02
2.630250e-02
2.652790e-02
2.705980e-02
5.078680e-02
5.029610e-02
5.031350e-02
5.083890e-02
5.187240e-02
7.204770e-02
7.173780e-02
7.203290e-02
7.293290e-02
7.443780e-02
9.055340e-02
9.070860e-02
9.146070e-02
9.280980e-02
9.475600e-02
0.000000e+00
0.000000e+00
0.000000e+00
0.000000e+00
0.000000e+00
2.705980e-02
2.774010e-02
2.862300e-02
2.970850e-02
3.099670e-02
5.187240e-02
5.318660e-02
5.487180e-02
5.692820e-02
5.935560e-02
7.443780e-02
7.633950e-02
7.874660e-02
8.165890e-02
8.507660e-02
9.475600e-02
9.719890e-02
1.002470e-01
1.039010e-01
1.081600e-01
0.000000e+00
0.000000e+00
0.000000e+00
0.000000e+00
0.000000e+00
3.099670e-02
3.248290e-02
3.429740e-02
3.644030e-02
3.891160e-02
5.935560e-02
6.213510e-02
6.548050e-02
6.939180e-02
7.386910e-02
8.507660e-02
8.895660e-02
9.354920e-02
9.885450e-02
1.048720e-01
1.081600e-01
1.129480e-01
1.185040e-01
1.248280e-01
1.319220e-01
0.000000e+00
0.000000e+00
0.000000e+00
0.000000e+00
0.000000e+00
3.891160e-02
4.164090e-02
4.489560e-02
4.867580e-02
5.298130e-02
7.386910e-02
7.879660e-02
8.461420e-02
9.132190e-02
9.891950e-02
1.048720e-01
1.114670e-01
1.191560e-01
1.279380e-01
1.378150e-01
1.319220e-01
1.396530e-01
1.485200e-01
1.585250e-01
1.696670e-01
0.000000e+00
0.000000e+00
0.000000e+00
0.000000e+00
0.000000e+00
5.298130e-02
5.755340e-02
6.303890e-02
6.943790e-02
7.675040e-02
9.891950e-02
1.069700e-01
1.165310e-01
1.276020e-01
1.401840e-01
1.378150e-01
1.482510e-01
1.604770e-01
1.744940e-01
1.903010e-01
1.696670e-01
1.813940e-01
1.948760e-01
2.101110e-01
2.271010e-01
0.000000e+00
0.000000e+00
0.000000e+00
0.000000e+00
0.000000e+00
7.675040e-02
8.417650e-02
9.304540e-02
1.033570e-01
1.151110e-01
1.401840e-01
1.529700e-01
1.680930e-01
1.855510e-01
2.053450e-01
1.903010e-01
2.063810e-01
2.251420e-01
2.465810e-01
2.707000e-01
2.271010e-01
2.444100e-01
2.641920e-01
2.864480e-01
3.111780e-01
0.000000e+00
0.000000e+00
0.000000e+00
0.000000e+00
0.000000e+00
1.151110e-01
1.270970e-01
1.405150e-01
1.553640e-01
1.716440e-01
2.053450e-01
2.256390e-01
2.482180e-01
2.730810e-01
3.002300e-01
2.707000e-01
2.956250e-01
3.231090e-01
3.531530e-01
3.857580e-01
3.111780e-01
3.370550e-01
3.651880e-01
3.955790e-01
4.282270e-01
0.000000e+00
0.000000e+00
0.000000e+00
0.000000e+00
0.000000e+00
1.716440e-01
1.901070e-01
2.079700e-01
2.252340e-01
2.418990e-01
3.002300e-01
3.312030e-01
3.613710e-01
3.907340e-01
4.192920e-01
3.857580e-01
4.232890e-01
4.602030e-01
4.964990e-01
5.321780e-01
4.282270e-01
4.663640e-01
5.044650e-01
5.425300e-01
5.805580e-01
0.000000e+00
0.000000e+00
0.000000e+00
0.000000e+00
0.000000e+00
2.418990e-01
2.625950e-01
2.787970e-01
2.905030e-01
2.977150e-01
4.192920e-01
4.547770e-01
4.836170e-01
5.058110e-01
5.213590e-01
5.321780e-01
5.765460e-01
6.144620e-01
6.459240e-01
6.709340e-01
5.805580e-01
6.279020e-01
6.713300e-01
7.108420e-01
7.464390e-01
0.000000e+00
0.000000e+00
0.000000e+00
0.000000e+00
0.000000e+00
2.977150e-01
3.004690e-01
2.971510e-01
2.877630e-01
2.723040e-01
5.213590e-01
5.305090e-01
5.299780e-01
5.197660e-01
4.998740e-01
6.709340e-01
6.901210e-01
6.984790e-01
6.960080e-01
6.827090e-01
7.464390e-01
7.793040e-01
8.026540e-01
8.164890e-01
8.208090e-01
0.000000e+00
0.000000e+00
0.000000e+00
0.000000e+00
0.000000e+00
2.723040e-01
2.407720e-01
2.093660e-01
1.780850e-01
1.469290e-01
4.998740e-01
4.531830e-01
4.040730e-01
3.525450e-01
2.985980e-01
6.827090e-01
6.372310e-01
5.841210e-01
5.233800e-01
4.550060e-01
8.208090e-01
7.929170e-01
7.495100e-01
6.905890e-01
6.161540e-01
0.000000e+00
0.000000e+00
0.000000e+00
0.000000e+00
0.000000e+00
1.469290e-01
1.180790e-01
9.205240e-02
6.885020e-02
4.847220e-02
2.985980e-01
2.442820e-01
1.941040e-01
1.480650e-01
1.061640e-01
4.550060e-01
3.786100e-01
3.061560e-01
2.376440e-01
1.730740e-01
6.161540e-01
5.210630e-01
4.282070e-01
3.375880e-01
2.492040e-01
0.000000e+00
0.000000e+00
0.000000e+00
0.000000e+00
0.000000e+00
4.847220e-02
3.531100e-02
2.255520e-02
1.020500e-02
-1.739740e-03
1.061640e-01
7.876320e-02
5.329430e-02
2.975680e-02
8.150550e-03
1.730740e-01
1.303570e-01
9.221730e-02
5.865530e-02
2.967090e-02
2.492040e-01
1.900920e-01
1.393240e-01
9.690060e-02
6.282120e-02
0.000000e+00
0.000000e+00
0.000000e+00
0.000000e+00
0.000000e+00
-1.739740e-03
-9.435720e-03
-1.352340e-02
-1.400270e-02
-1.087370e-02
8.150550e-03
-5.938210e-03
-1.351810e-02
-1.458910e-02
-9.151230e-03
2.967090e-02
1.049250e-02
1.583940e-05
-1.759220e-03
5.167370e-03
6.282120e-02
3.985650e-02
2.707840e-02
2.448700e-02
3.208210e-02
0.000000e+00
0.000000e+00
0.000000e+00
0.000000e+00
0.000000e+00
-1.087370e-02
-9.411330e-03
-7.190060e-03
-4.209880e-03
-4.707800e-04
-9.151230e-03
-6.410740e-03
-2.590160e-03
2.310510e-03
8.291270e-03
5.167370e-03
9.001760e-03
1.379970e-02
1.956120e-02
2.628620e-02
3.208210e-02
3.682620e-02
4.197950e-02
4.754210e-02
5.351390e-02
0.000000e+00
0.000000e+00
0.000000e+00
0.000000e+00
0.000000e+00
-4.707800e-04
2.060600e-03
4.033940e-03
5.449240e-03
6.306520e-03
8.291270e-03
1.227180e-02
1.528710e-02
1.733710e-02
1.842190e-02
2.628620e-02
3.063360e-02
3.375950e-02
3.566360e-02
3.634610e-02
5.351390e-02
5.714610e-02
5.945100e-02
6.042870e-02
6.007910e-02
0.000000e+00
0.000000e+00
0.000000e+00
0.000000e+00
0.000000e+00
6.306520e-03
7.432720e-03
7.190880e-03
5.580990e-03
2.603060e-03
1.842190e-02
1.974710e-02
1.912970e-02
1.656960e-02
1.206680e-02
3.634610e-02
3.694320e-02
3.581640e-02
3.296580e-02
2.839130e-02
6.007910e-02
5.902090e-02
5.725100e-02
5.476960e-02
5.157660e-02
1.002660e-01
1.093980e-01
1.147890e-01
1.164390e-01
1.143490e-01
9.945850e-02
1.077950e-01
1.137480e-01
1.173180e-01
1.185050e-01
9.848610e-02
1.058480e-01
1.118830e-01
1.165900e-01
1.199700e-01
9.734850e-02
1.035570e-01
1.091920e-01
1.142550e-01
1.187450e-01
9.604590e-02
1.009210e-01
1.056770e-01
1.103120e-01
1.148280e-01
1.143490e-01
1.102180e-01
1.060430e-01
1.018250e-01
9.756390e-02
1.185050e-01
1.172490e-01
1.153440e-01
1.127900e-01
1.095870e-01
1.199700e-01
1.209340e-01
1.208690e-01
1.197750e-01
1.176510e-01
1.187450e-01
1.212750e-01
1.226200e-01
1.227800e-01
1.217560e-01
1.148280e-01
1.182700e-01
1.205960e-01
1.218070e-01
1.219020e-01
9.756390e-02
9.440150e-02
9.217890e-02
9.089620e-02
9.055340e-02
1.095870e-01
1.069380e-01
1.051320e-01
1.041680e-01
1.040450e-01
1.176510e-01
1.156490e-01
1.143500e-01
1.137540e-01
1.138610e-01
1.217560e-01
1.205340e-01
1.198340e-01
1.196560e-01
1.199990e-01
1.219020e-01
1.215930e-01
1.215830e-01
1.218720e-01
1.224600e-01
9.055340e-02
9.070860e-02
9.146070e-02
9.280980e-02
9.475600e-02
1.040450e-01
1.045010e-01
1.055590e-01
1.072180e-01
1.094780e-01
1.138610e-01
1.145740e-01
1.158720e-01
1.177560e-01
1.202240e-01
1.199990e-01
1.209260e-01
1.224010e-01
1.244240e-01
1.269950e-01
1.224600e-01
1.235570e-01
1.251440e-01
1.272220e-01
1.297890e-01
9.475600e-02
9.719890e-02
1.002470e-01
1.039010e-01
1.081600e-01
1.094780e-01
1.122320e-01
1.156160e-01
1.196300e-01
1.242730e-01
1.202240e-01
1.231720e-01
1.267510e-01
1.309590e-01
1.357970e-01
1.269950e-01
1.300200e-01
1.336510e-01
1.378880e-01
1.427300e-01
1.297890e-01
1.327740e-01
1.363170e-01
1.404160e-01
1.450730e-01
1.081600e-01
1.129480e-01
1.185040e-01
1.248280e-01
1.319220e-01
1.242730e-01
1.294540e-01
1.354020e-01
1.421190e-01
1.496040e-01
1.357970e-01
1.411610e-01
1.472740e-01
1.541370e-01
1.617480e-01
1.427300e-01
1.480680e-01
1.541190e-01
1.608810e-01
1.683560e-01
1.450730e-01
1.501760e-01
1.559360e-01
1.623520e-01
1.694250e-01
1.319220e-01
1.396530e-01
1.485200e-01
1.585250e-01
1.696670e-01
1.496040e-01
1.576730e-01
1.668510e-01
1.771390e-01
1.885350e-01
1.617480e-01
1.698860e-01
1.790890e-01
1.893570e-01
2.006910e-01
1.683560e-01
1.762920e-01
1.852340e-01
1.951820e-01
2.061350e-01
1.694250e-01
1.768920e-01
1.852870e-01
1.946120e-01
2.048660e-01
1.696670e-01
1.813940e-01
1.948760e-01
2.101110e-01
2.271010e-01
1.885350e-01
2.003780e-01
2.139330e-01
2.291990e-01
2.461770e-01
2.006910e-01
2.123470e-01
2.256640e-01
2.406410e-01
2.572790e-01
2.061350e-01
2.173010e-01
2.300680e-01
2.444370e-01
2.604080e-01
2.048660e-01
2.152390e-01
2.271460e-01
2.405880e-01
2.555640e-01
2.271010e-01
2.444100e-01
2.641920e-01
2.864480e-01
3.111780e-01
2.461770e-01
2.631900e-01
2.827110e-01
3.047400e-01
3.292770e-01
2.572790e-01
2.736870e-01
2.926500e-01
3.141690e-01
3.382420e-01
2.604080e-01
2.759000e-01
2.940080e-01
3.147330e-01
3.380740e-01
2.555640e-01
2.698300e-01
2.867860e-01
3.064340e-01
3.287710e-01
3.111780e-01
3.370550e-01
3.651880e-01
3.955790e-01
4.282270e-01
3.292770e-01
3.545380e-01
3.823510e-01
4.127150e-01
4.456310e-01
3.382420e-01
3.625750e-01
3.897670e-01
4.198190e-01
4.527300e-01
3.380740e-01
3.611660e-01
3.874390e-01
4.168920e-01
4.495250e-01
3.287710e-01
3.503100e-01
3.753640e-01
4.039330e-01
4.360160e-01
4.282270e-01
4.663640e-01
5.044650e-01
5.425300e-01
5.805580e-01
4.456310e-01
4.841100e-01
5.230130e-01
5.623410e-01
6.020920e-01
4.527300e-01
4.911800e-01
5.304790e-01
5.706290e-01
6.116280e-01
4.495250e-01
4.875740e-01
5.268630e-01
5.673940e-01
6.091650e-01
4.360160e-01
4.732920e-01
5.121650e-01
5.526360e-01
5.947040e-01
5.805580e-01
6.279020e-01
6.713300e-01
7.108420e-01
7.464390e-01
6.020920e-01
6.532110e-01
7.007040e-01
7.445710e-01
7.848140e-01
6.116280e-01
6.661890e-01
7.173260e-01
7.650370e-01
8.093220e-01
6.091650e-01
6.668390e-01
7.211960e-01
7.722380e-01
8.199640e-01
5.947040e-01
6.551580e-01
7.123150e-01
7.661760e-01
8.167390e-01
7.464390e-01
7.793040e-01
8.026540e-01
8.164890e-01
8.208090e-01
7.848140e-01
8.259470e-01
8.583230e-01
8.819410e-01
8.968020e-01
8.093220e-01
8.577960e-01
8.979350e-01
9.297420e-01
9.532150e-01
8.199640e-01
8.748500e-01
9.214920e-01
9.598910e-01
9.900470e-01
8.167390e-01
8.771090e-01
9.289930e-01
9.723900e-01
1.007300e+00
8.208090e-01
7.929170e-01
7.495100e-01
6.905890e-01
6.161540e-01
8.968020e-01
8.836140e-01
8.553820e-01
8.121050e-01
7.537840e-01
9.532150e-01
9.508090e-01
9.346180e-01
9.046410e-01
8.608790e-01
9.900470e-01
9.945020e-01
9.872190e-01
9.681980e-01
9.374380e-01
1.007300e+00
1.014690e+00
1.013180e+00
1.002770e+00
9.834620e-01
6.161540e-01
5.210630e-01
4.282070e-01
3.375880e-01
2.492040e-01
7.537840e-01
6.584950e-01
5.583880e-01
4.534630e-01
3.437200e-01
8.608790e-01
7.719140e-01
6.719270e-01
5.609190e-01
4.388890e-01
9.374380e-01
8.613210e-01
7.688270e-01
6.599570e-01
5.347100e-01
9.834620e-01
9.267150e-01
8.490860e-01
7.505760e-01
6.311850e-01
2.492040e-01
1.900920e-01
1.393240e-01
9.690060e-02
6.282120e-02
3.437200e-01
2.681820e-01
2.034740e-01
1.495960e-01
1.065480e-01
4.388890e-01
3.500100e-01
2.730380e-01
2.079750e-01
1.548200e-01
5.347100e-01
4.355750e-01
3.480180e-01
2.720390e-01
2.076380e-01
6.311850e-01
5.248790e-01
4.284130e-01
3.417870e-01
2.650020e-01
6.282120e-02
3.985650e-02
2.707840e-02
2.448700e-02
3.208210e-02
1.065480e-01
7.609820e-02
5.799090e-02
5.222590e-02
5.880310e-02
1.548200e-01
1.162480e-01
9.192030e-02
8.183670e-02
8.599710e-02
2.076380e-01
1.603060e-01
1.288670e-01
1.133190e-01
1.136640e-01
2.650020e-01
2.082720e-01
1.688300e-01
1.466730e-01
1.418040e-01
3.208210e-02
3.682620e-02
4.197950e-02
4.754210e-02
5.351390e-02
5.880310e-02
6.333930e-02
6.808190e-02
7.303100e-02
7.818650e-02
8.599710e-02
8.923090e-02
9.273180e-02
9.649970e-02
1.005350e-01
1.136640e-01
1.145010e-01
1.159290e-01
1.179480e-01
1.205590e-01
1.418040e-01
1.391490e-01
1.376740e-01
1.373770e-01
1.382580e-01
5.351390e-02
5.714610e-02
5.945100e-02
6.042870e-02
6.007910e-02
7.818650e-02
8.078890e-02
8.201290e-02
8.185850e-02
8.032560e-02
1.005350e-01
1.019410e-01
1.019750e-01
1.006360e-01
9.792480e-02
1.205590e-01
1.206030e-01
1.193380e-01
1.167620e-01
1.128770e-01
1.382580e-01
1.367750e-01
1.341010e-01
1.302360e-01
1.251810e-01
6.007910e-02
5.902090e-02
5.725100e-02
5.476960e-02
5.157660e-02
8.032560e-02
7.855510e-02
7.615000e-02
7.311020e-02
6.943580e-02
9.792480e-02
9.541570e-02
9.237390e-02
8.879930e-02
8.469200e-02
1.128770e-01
1.096030e-01
1.059230e-01
1.018370e-01
9.734500e-02
1.251810e-01
1.211160e-01
1.167960e-01
1.122230e-01
1.073950e-01
9.604590e-02
1.009210e-01
1.056770e-01
1.103120e-01
1.148280e-01
9.458900e-02
9.894280e-02
1.032310e-01
1.074550e-01
1.116130e-01
9.299440e-02
9.696530e-02
1.008580e-01
1.046730e-01
1.084100e-01
9.126190e-02
9.498850e-02
9.855630e-02
1.019660e-01
1.052160e-01
8.939170e-02
9.301240e-02
9.632630e-02
9.933320e-02
1.020330e-01
1.148280e-01
1.182700e-01
1.205960e-01
1.218070e-01
1.219020e-01
1.116130e-01
1.150600e-01
1.176290e-01
1.193180e-01
1.201300e-01
1.084100e-01
1.117030e-01
1.143420e-01
1.163240e-01
1.176510e-01
1.052160e-01
1.081990e-01
1.107350e-01
1.128240e-01
1.144660e-01
1.020330e-01
1.045470e-01
1.068080e-01
1.088170e-01
1.105740e-01
1.219020e-01
1.215930e-01
1.215830e-01
1.218720e-01
1.224600e-01
1.201300e-01
1.204880e-01
1.210210e-01
1.217280e-01
1.226090e-01
1.176510e-01
1.185350e-01
1.195050e-01
1.205590e-01
1.216970e-01
1.144660e-01
1.157340e-01
1.170330e-01
1.183640e-01
1.197260e-01
1.105740e-01
1.120840e-01
1.136080e-01
1.151440e-01
1.166940e-01
1.224600e-01
1.235570e-01
1.251440e-01
1.272220e-01
1.297890e-01
1.226090e-01
1.238870e-01
1.255930e-01
1.277270e-01
1.302880e-01
1.216970e-01
1.231400e-01
1.249510e-01
1.271310e-01
1.296800e-01
1.197260e-01
1.213150e-01
1.232180e-01
1.254340e-01
1.279650e-01
1.166940e-01
1.184130e-01
1.203940e-01
1.226380e-01
1.251430e-01
1.297890e-01
1.327740e-01
1.363170e-01
1.404160e-01
1.450730e-01
1.302880e-01
1.332280e-01
1.366840e-01
1.406560e-01
1.451440e-01
1.296800e-01
1.325690e-01
1.359330e-01
1.397710e-01
1.440830e-01
1.279650e-01
1.307970e-01
1.340620e-01
1.377600e-01
1.418910e-01
1.251430e-01
1.279110e-01
1.310710e-01
1.346240e-01
1.385680e-01
1.450730e-01
1.501760e-01
1.559360e-01
1.623520e-01
1.694250e-01
1.451440e-01
1.500290e-01
1.555360e-01
1.616630e-01
1.684100e-01
1.440830e-01
1.487460e-01
1.539940e-01
1.598260e-01
1.662430e-01
1.418910e-01
1.463260e-01
1.513100e-01
1.568420e-01
1.629230e-01
1.385680e-01
1.427710e-01
1.474850e-01
1.527120e-01
1.584500e-01
1.694250e-01
1.768920e-01
1.852870e-01
1.946120e-01
2.048660e-01
1.684100e-01
1.754950e-01
1.834690e-01
1.923310e-01
2.020810e-01
1.662430e-01
1.729400e-01
1.804830e-01
1.888710e-01
1.981030e-01
1.629230e-01
1.692270e-01
1.763300e-01
1.842320e-01
1.929320e-01
1.584500e-01
1.643550e-01
1.710090e-01
1.784140e-01
1.865670e-01
2.048660e-01
2.152390e-01
2.271460e-01
2.405880e-01
2.555640e-01
2.020810e-01
2.118810e-01
2.231820e-01
2.359860e-01
2.502910e-01
1.981030e-01
2.073120e-01
2.179750e-01
2.300910e-01
2.436610e-01
1.929320e-01
2.015330e-01
2.115240e-01
2.229030e-01
2.356710e-01
1.865670e-01
1.945440e-01
2.038280e-01
2.144220e-01
2.263230e-01
2.555640e-01
2.698300e-01
2.867860e-01
3.064340e-01
3.287710e-01
2.502910e-01
2.636570e-01
2.798210e-01
2.987820e-01
3.205410e-01
2.436610e-01
2.560740e-01
2.713370e-01
2.894490e-01
3.104110e-01
2.356710e-01
2.470800e-01
2.613350e-01
2.784360e-01
2.983830e-01
2.263230e-01
2.366750e-01
2.498150e-01
2.657420e-01
2.844570e-01
3.287710e-01
3.503100e-01
3.753640e-01
4.039330e-01
4.360160e-01
3.205410e-01
3.407150e-01
3.647980e-01
3.927900e-01
4.246910e-01
3.104110e-01
3.288800e-01
3.516640e-01
3.787610e-01
4.101730e-01
2.983830e-01
3.148080e-01
3.359630e-01
3.618470e-01
3.924620e-01
2.844570e-01
2.984970e-01
3.176940e-01
3.420480e-01
3.715580e-01
4.360160e-01
4.732920e-01
5.121650e-01
5.526360e-01
5.947040e-01
4.246910e-01
4.611200e-01
4.994680e-01
5.397360e-01
5.819230e-01
4.101730e-01
4.449760e-01
4.819550e-01
5.211100e-01
5.624430e-01
3.924620e-01
4.248580e-01
4.596240e-01
4.967600e-01
5.362660e-01
3.715580e-01
4.007680e-01
4.324770e-01
4.666840e-01
5.033900e-01
5.947040e-01
6.551580e-01
7.123150e-01
7.661760e-01
8.167390e-01
5.819230e-01
6.455460e-01
7.053090e-01
7.612110e-01
8.132520e-01
5.624430e-01
6.281020e-01
6.889620e-01
7.450250e-01
7.962900e-01
5.362660e-01
6.028240e-01
6.632750e-01
7.176180e-01
7.658540e-01
5.033900e-01
5.697140e-01
6.282480e-01
6.789910e-01
7.219420e-01
8.167390e-01
8.771090e-01
9.289930e-01
9.723900e-01
1.007300e+00
8.132520e-01
8.798260e-01
9.370940e-01
9.850570e-01
1.023710e+00
7.962900e-01
8.672090e-01
9.283850e-01
9.798180e-01
1.021510e+00
7.658540e-01
8.392570e-01
9.028630e-01
9.566710e-01
1.000680e+00
7.219420e-01
7.959720e-01
8.605310e-01
9.156180e-01
9.612340e-01
1.007300e+00
1.014690e+00
1.013180e+00
1.002770e+00
9.834620e-01
1.023710e+00
1.033320e+00
1.034360e+00
1.026840e+00
1.010760e+00
1.021510e+00
1.033190e+00
1.037140e+00
1.033360e+00
1.021850e+00
1.000680e+00
1.014310e+00
1.021530e+00
1.022340e+00
1.016740e+00
9.612340e-01
9.766780e-01
9.875260e-01
9.937770e-01
9.954320e-01
9.834620e-01
9.267150e-01
8.490860e-01
7.505760e-01
6.311850e-01
1.010760e+00
9.618060e-01
8.944450e-01
8.086760e-01
7.044990e-01
1.021850e+00
9.785070e-01
9.201020e-01
8.466360e-01
7.581110e-01
1.016740e+00
9.768190e-01
9.260570e-01
8.644570e-01
7.920200e-01
9.954320e-01
9.567410e-01
9.123090e-01
8.621380e-01
8.062260e-01
6.311850e-01
5.248790e-01
4.284130e-01
3.417870e-01
2.650020e-01
7.044990e-01
5.978510e-01
4.981070e-01
4.052660e-01
3.193300e-01
7.581110e-01
6.554630e-01
5.562130e-01
4.603610e-01
3.679090e-01
7.920200e-01
6.977140e-01
6.027310e-01
5.070730e-01
4.107390e-01
8.062260e-01
7.246040e-01
6.376620e-01
5.454010e-01
4.478200e-01
2.650020e-01
2.082720e-01
1.688300e-01
1.466730e-01
1.418040e-01
3.193300e-01
2.578650e-01
2.127460e-01
1.839720e-01
1.715430e-01
3.679090e-01
3.036540e-01
2.543870e-01
2.201090e-01
2.008190e-01
4.107390e-01
3.456380e-01
2.937540e-01
2.550840e-01
2.296300e-01
4.478200e-01
3.838190e-01
3.308440e-01
2.888970e-01
2.579770e-01
1.418040e-01
1.391490e-01
1.376740e-01
1.373770e-01
1.382580e-01
1.715430e-01
1.635390e-01
1.578390e-01
1.544430e-01
1.533500e-01
2.008190e-01
1.872470e-01
1.770380e-01
1.701940e-01
1.667140e-01
2.296300e-01
2.102710e-01
1.952710e-01
1.846300e-01
1.783480e-01
2.579770e-01
2.326120e-01
2.125370e-01
1.977510e-01
1.882540e-01
1.382580e-01
1.367750e-01
1.341010e-01
1.302360e-01
1.251810e-01
1.533500e-01
1.504900e-01
1.464740e-01
1.413030e-01
1.349770e-01
1.667140e-01
1.623930e-01
1.570140e-01
1.505760e-01
1.430790e-01
1.783480e-01
1.724840e-01
1.657190e-01
1.580540e-01
1.494870e-01
1.882540e-01
1.807630e-01
1.725910e-01
1.637370e-01
1.542010e-01
1.251810e-01
1.211160e-01
1.167960e-01
1.122230e-01
1.073950e-01
1.349770e-01
1.299530e-01
1.249670e-01
1.200170e-01
1.151050e-01
1.430790e-01
1.371480e-01
1.315440e-01
1.262670e-01
1.213170e-01
1.494870e-01
1.427000e-01
1.365280e-01
1.309720e-01
1.260310e-01
1.542010e-01
1.466080e-01
1.399190e-01
1.341320e-01
1.292480e-01
8.939170e-02
9.301240e-02
9.632630e-02
9.933320e-02
1.020330e-01
8.740010e-02
9.076110e-02
9.380270e-02
9.652490e-02
9.892770e-02
8.530680e-02
8.840600e-02
9.118630e-02
9.364790e-02
9.579060e-02
8.311190e-02
8.594710e-02
8.847720e-02
9.070220e-02
9.262200e-02
8.081530e-02
8.338450e-02
8.567520e-02
8.768770e-02
8.942180e-02
1.020330e-01
1.045470e-01
1.068080e-01
1.088170e-01
1.105740e-01
9.892770e-02
1.011070e-01