<?xml version="1.0"?>
<VTKFile type="UnstructuredGrid" version="0.1" byte_order="LittleEndian" compressor="vtkZLibDataCompressor">
<UnstructuredGrid>
<Piece NumberOfPoints="10000" NumberOfCells="6400">
<Points>
<DataArray type="Float32" NumberOfComponents="3" format="ascii">
-3.360000e+00 0.000000e+00 0.000000e+00
-3.276000e+00 0.000000e+00 0.000000e+00
-3.192000e+00 0.000000e+00 0.000000e+00
-3.108000e+00 0.000000e+00 0.000000e+00
-3.024000e+00 0.000000e+00 0.000000e+00
-3.360000e+00 6.412500e-02 0.000000e+00
-3.276000e+00 6.412500e-02 0.000000e+00
-3.192000e+00 6.412500e-02 0.000000e+00
-3.108000e+00 6.412500e-02 0.000000e+00
-3.024000e+00 6.412500e-02 0.000000e+00
-3.360000e+00 1.282500e-01 0.000000e+00
-3.276000e+00 1.282500e-01 0.000000e+00
-3.192000e+00 1.282500e-01 0.000000e+00
-3.108000e+00 1.282500e-01 0.000000e+00
-3.024000e+00 1.282500e-01 0.000000e+00
-3.360000e+00 1.923750e-01 0.000000e+00
-3.276000e+00 1.923750e-01 0.000000e+00
-3.192000e+00 1.923750e-01 0.000000e+00
-3.108000e+00 1.923750e-01 0.000000e+00
-3.024000e+00 1.923750e-01 0.000000e+00
-3.360000e+00 2.565000e-01 0.000000e+00
-3.276000e+00 2.565000e-01 0.000000e+00
-3.192000e+00 2.565000e-01 0.000000e+00
-3.108000e+00 2.565000e-01 0.000000e+00
-3.024000e+00 2.565000e-01 0.000000e+00
-3.024000e+00 0.000000e+00 0.000000e+00
-2.940000e+00 0.000000e+00 0.000000e+00
-2.856000e+00 0.000000e+00 0.000000e+00
-2.772000e+00 0.000000e+00 0.000000e+00
-2.688000e+00 0.000000e+00 0.000000e+00
-3.024000e+00 6.412500e-02 0.000000e+00
-2.940000e+00 6.412500e-02 0.000000e+00
-2.856000e+00 6.412500e-02 0.000000e+00
-2.772000e+00 6.412500e-02 0.000000e+00
-2.688000e+00 6.412500e-02 0.000000e+00
-3.024000e+00 1.282500e-01 0.000000e+00
-2.940000e+00 1.282500e-01 0.000000e+00
-2.856000e+00 1.282500e-01 0.000000e+00
-2.772000e+00 1.282500e-01 0.000000e+00
-2.688000e+00 1.282500e-01 0.000000e+00
-3.024000e+00 1.923750e-01 0.000000e+00
-2.940000e+00 1.923750e-01 0.000000e+00
-2.856000e+00 1.923750e-01 0.000000e+00
-2.772000e+00 1.923750e-01 0.000000e+00
-2.688000e+00 1.923750e-01 0.000000e+00
-3.024000e+00 2.565000e-01 0.000000e+00
-2.940000e+00 2.565000e-01 0.000000e+00
-2.856000e+00 2.565000e-01 0.000000e+00
-2.772000e+00 2.565000e-01 0.000000e+00
-2.688000e+00 2.565000e-01 0.000000e+00
-2.688000e+00 0.000000e+00 0.000000e+00
-2.604000e+00 0.000000e+00 0.000000e+00
-2.520000e+00 0.000000e+00 0.000000e+00
-2.436000e+00 0.000000e+00 0.000000e+00
-2.352000e+00 0.000000e+00 0.000000e+00
-2.688000e+00 6.412500e-02 0.000000e+00
-2.604000e+00 6.412500e-02 0.000000e+00
-2.520000e+00 6.412500e-02 0.000000e+00
-2.436000e+00 6.412500e-02 0.000000e+00
-2.352000e+00 6.412500e-02 0.000000e+00
-2.688000e+00 1.282500e-01 0.000000e+00
-2.604000e+00 1.282500e-01 0.000000e+00
-2.520000e+00 1.282500e-01 0.000000e+00
-2.436000e+00 1.282500e-01 0.000000e+00
-2.352000e+00 1.282500e-01 0.000000e+00
-2.688000e+00 1.923750e-01 0.000000e+00
-2.604000e+00 1.923750e-01 0.000000e+00
-2.520000e+00 1.923750e-01 0.000000e+00
-2.436000e+00 1.923750e-01 0.000000e+00
-2.352000e+00 1.923750e-01 0.000000e+00
-2.688000e+00 2.565000e-01 0.000000e+00
-2.604000e+00 2.565000e-01 0.000000e+00
-2.520000e+00 2.565000e-01 0.000000e+00
-2.436000e+00 2.565000e-01 0.000000e+00
-2.352000e+00 2.565000e-01 0.000000e+00
-2.352000e+00 0.000000e+00 0.000000e+00
-2.268000e+00 0.000000e+00 0.000000e+00
-2.184000e+00 0.000000e+00 0.000000e+00
-2.100000e+00 0.000000e+00 0.000000e+00
-2.016000e+00 0.000000e+00 0.000000e+00
-2.352000e+00 6.412500e-02 0.000000e+00
-2.268000e+00 6.412500e-02 0.000000e+00
-2.184000e+00 6.412500e-02 0.000000e+00
-2.100000e+00 6.412500e-02 0.000000e+00
-2.016000e+00 6.412500e-02 0.000000e+00
-2.352000e+00 1.282500e-01 0.000000e+00
-2.268000e+00 1.282500e-01 0.000000e+00
-2.184000e+00 1.282500e-01 0.000000e+00
-2.100000e+00 1.282500e-01 0.000000e+00
-2.016000e+00 1.282500e-01 0.000000e+00
-2.352000e+00 1.923750e-01 0.000000e+00
-2.268000e+00 1.923750e-01 0.000000e+00
-2.184000e+00 1.923750e-01 0.000000e+00
-2.100000e+00 1.923750e-01 0.000000e+00
-2.016000e+00 1.923750e-01 0.000000e+00
-2.352000e+00 2.565000e-01 0.000000e+00
-2.268000e+00 2.565000e-01 0.000000e+00
-2.184000e+00 2.565000e-01 0.000000e+00
-2.100000e+00 2.565000e-01 0.000000e+00
-2.016000e+00 2.565000e-01 0.000000e+00
-2.016000e+00 0.000000e+00 0.000000e+00
-1.932000e+00 0.000000e+00 0.000000e+00
-1.848000e+00 0.000000e+00 0.000000e+00
-1.764000e+00 0.000000e+00 0.000000e+00
-1.680000e+00 0.000000e+00 0.000000e+00
-2.016000e+00 6.412500e-02 0.000000e+00
-1.932000e+00 6.412500e-02 0.000000e+00
-1.848000e+00 6.412500e-02 0.000000e+00
-1.764000e+00 6.412500e-02 0.000000e+00
-1.680000e+00 6.412500e-02 0.000000e+00
-2.016000e+00 1.282500e-01 0.000000e+00
-1.932000e+00 1.282500e-01 0.000000e+00
-1.848000e+00 1.282500e-01 0.000000e+00
-1.764000e+00 1.282500e-01 0.000000e+00
-1.680000e+00 1.282500e-01 0.000000e+00
-2.016000e+00 1.923750e-01 0.000000e+00
-1.932000e+00 1.923750e-01 0.000000e+00
-1.848000e+00 1.923750e-01 0.000000e+00
-1.764000e+00 1.923750e-01 0.000000e+00
-1.680000e+00 1.923750e-01 0.000000e+00
-2.016000e+00 2.565000e-01 0.000000e+00
-1.932000e+00 2.565000e-01 0.000000e+00
-1.848000e+00 2.565000e-01 0.000000e+00
-1.764000e+00 2.565000e-01 0.000000e+00
-1.680000e+00 2.565000e-01 0.000000e+00
-1.680000e+00 0.000000e+00 0.000000e+00
-1.596000e+00 0.000000e+00 0.000000e+00
-1.512000e+00 0.000000e+00 0.000000e+00
-1.428000e+00 0.000000e+00 0.000000e+00
-1.344000e+00 0.000000e+00 0.000000e+00
-1.680000e+00 6.412500e-02 0.000000e+00
-1.596000e+00 6.412500e-02 0.000000e+00
-1.512000e+00 6.412500e-02 0.000000e+00
-1.428000e+00 6.412500e-02 0.000000e+00
-1.344000e+00 6.412500e-02 0.000000e+00
-1.680000e+00 1.282500e-01 0.000000e+00
-1.596000e+00 1.282500e-01 0.000000e+00
-1.512000e+00 1.282500e-01 0.000000e+00
-1.428000e+00 1.282500e-01 0.000000e+00
-1.344000e+00 1.282500e-01 0.000000e+00
-1.680000e+00 1.923750e-01 0.000000e+00
-1.596000e+00 1.923750e-01 0.000000e+00
-1.512000e+00 1.923750e-01 0.000000e+00
-1.428000e+00 1.923750e-01 0.000000e+00
-1.344000e+00 1.923750e-01 0.000000e+00
-1.680000e+00 2.565000e-01 0.000000e+00
-1.596000e+00 2.565000e-01 0.000000e+00
-1.512000e+00 2.565000e-01 0.000000e+00
-1.428000e+00 2.565000e-01 0.000000e+00
-1.344000e+00 2.565000e-01 0.000000e+00
-1.344000e+00 0.000000e+00 0.000000e+00
-1.260000e+00 0.000000e+00 0.000000e+00
-1.176000e+00 0.000000e+00 0.000000e+00
-1.092000e+00 0.000000e+00 0.000000e+00
-1.008000e+00 0.000000e+00 0.000000e+00
-1.344000e+00 6.412500e-02 0.000000e+00
-1.260000e+00 6.412500e-02 0.000000e+00
-1.176000e+00 6.412500e-02 0.000000e+00
-1.092000e+00 6.412500e-02 0.000000e+00
-1.008000e+00 6.412500e-02 0.000000e+00
-1.344000e+00 1.282500e-01 0.000000e+00
-1.260000e+00 1.282500e-01 0.000000e+00
-1.176000e+00 1.282500e-01 0.000000e+00
-1.092000e+00 1.282500e-01 0.000000e+00
-1.008000e+00 1.282500e-01 0.000000e+00
-1.344000e+00 1.923750e-01 0.000000e+00
-1.260000e+00 1.923750e-01 0.000000e+00
-1.176000e+00 1.923750e-01 0.000000e+00
-1.092000e+00 1.923750e-01 0.000000e+00
-1.008000e+00 1.923750e-01 0.000000e+00
-1.344000e+00 2.565000e-01 0.000000e+00
-1.260000e+00 2.565000e-01 0.000000e+00
-1.176000e+00 2.565000e-01 0.000000e+00
-1.092000e+00 2.565000e-01 0.000000e+00
-1.008000e+00 2.565000e-01 0.000000e+00
-1.008000e+00 0.000000e+00 0.000000e+00
-9.240000e-01 0.000000e+00 0.000000e+00
-8.400000e-01 0.000000e+00 0.000000e+00
-7.560000e-01 0.000000e+00 0.000000e+00
-6.720000e-01 0.000000e+00 0.000000e+00
-1.008000e+00 6.412500e-02 0.000000e+00
-9.240000e-01 6.412500e-02 0.000000e+00
-8.400000e-01 6.412500e-02 0.000000e+00
-7.560000e-01 6.412500e-02 0.000000e+00
-6.720000e-01 6.412500e-02 0.000000e+00
-1.008000e+00 1.282500e-01 0.000000e+00
-9.240000e-01 1.282500e-01 0.000000e+00
-8.400000e-01 1.282500e-01 0.000000e+00
-7.560000e-01 1.282500e-01 0.000000e+00
-6.720000e-01 1.282500e-01 0.000000e+00
-1.008000e+00 1.923750e-01 0.000000e+00
-9.240000e-01 1.923750e-01 0.000000e+00
-8.400000e-01 1.923750e-01 0.000000e+00
-7.560000e-01 1.923750e-01 0.000000e+00
-6.720000e-01 1.923750e-01 0.000000e+00
-1.008000e+00 2.565000e-01 0.000000e+00
-9.240000e-01 2.565000e-01 0.000000e+00
-8.400000e-01 2.565000e-01 0.000000e+00
-7.560000e-01 2.565000e-01 0.000000e+00
-6.720000e-01 2.565000e-01 0.000000e+00
-6.720000e-01 0.000000e+00 0.000000e+00
-5.880000e-01 0.000000e+00 0.000000e+00
-5.040000e-01 0.000000e+00 0.000000e+00
-4.200000e-01 0.000000e+00 0.000000e+00
-3.360000e-01 0.000000e+00 0.000000e+00
-6.720000e-01 6.412500e-02 0.000000e+00
-5.880000e-01 6.412500e-02 0.000000e+00
-5.040000e-01 6.412500e-02 0.000000e+00
-4.200000e-01 6.412500e-02 0.000000e+00
-3.360000e-01 6.412500e-02 0.000000e+00
-6.720000e-01 1.282500e-01 0.000000e+00
-5.880000e-01 1.282500e-01 0.000000e+00
-5.040000e-01 1.282500e-01 0.000000e+00
-4.200000e-01 1.282500e-01 0.000000e+00
-3.360000e-01 1.282500e-01 0.000000e+00
-6.720000e-01 1.923750e-01 0.000000e+00
-5.880000e-01 1.923750e-01 0.000000e+00
-5.040000e-01 1.923750e-01 0.000000e+00
-4.200000e-01 1.923750e-01 0.000000e+00
-3.360000e-01 1.923750e-01 0.000000e+00
-6.720000e-01 2.565000e-01 0.000000e+00
-5.880000e-01 2.565000e-01 0.000000e+00
-5.040000e-01 2.565000e-01 0.000000e+00
-4.200000e-01 2.565000e-01 0.000000e+00
-3.360000e-01 2.565000e-01 0.000000e+00
-3.360000e-01 0.000000e+00 0.000000e+00
-2.520000e-01 0.000000e+00 0.000000e+00
-1.680000e-01 0.000000e+00 0.000000e+00
-8.400000e-02 0.000000e+00 0.000000e+00
-4.440890e-16 0.000000e+00 0.000000e+00
-3.360000e-01 6.412500e-02 0.000000e+00
-2.520000e-01 6.412500e-02 0.000000e+00
-1.680000e-01 6.412500e-02 0.000000e+00
-8.400000e-02 6.412500e-02 0.000000e+00
-4.440890e-16 6.412500e-02 0.000000e+00
-3.360000e-01 1.282500e-01 0.000000e+00
-2.520000e-01 1.282500e-01 0.000000e+00
-1.680000e-01 1.282500e-01 0.000000e+00
-8.400000e-02 1.282500e-01 0.000000e+00
-4.440890e-16 1.282500e-01 0.000000e+00
-3.360000e-01 1.923750e-01 0.000000e+00
-2.520000e-01 1.923750e-01 0.000000e+00
-1.680000e-01 1.923750e-01 0.000000e+00
[...]
<PointData>
<DataArray type="Float32" Name="V1" format="ascii">
0.000000e+00
0.000000e+00
0.000000e+00
0.000000e+00
0.000000e+00
6.347820e-02
5.970390e-02
5.545180e-02
5.072170e-02
4.551370e-02
1.013490e-01
9.784430e-02
9.307900e-02
8.705250e-02
7.976500e-02
1.136110e-01
1.144210e-01
1.128820e-01
1.089930e-01
1.027540e-01
1.002660e-01
1.094340e-01
1.148600e-01
1.165420e-01
1.144810e-01
0.000000e+00
0.000000e+00
0.000000e+00
0.000000e+00
0.000000e+00
4.551370e-02
3.975560e-02
3.532180e-02
3.221220e-02
3.042690e-02
7.976500e-02
7.138760e-02
6.475130e-02
5.985610e-02
5.670210e-02
1.027540e-01
9.489590e-02
8.828840e-02
8.293170e-02
7.882570e-02
1.144810e-01
1.102810e-01
1.059330e-01
1.014390e-01
9.679760e-02
0.000000e+00
0.000000e+00
0.000000e+00
0.000000e+00
0.000000e+00
3.042690e-02
2.883850e-02
2.754320e-02
2.654100e-02
2.583200e-02
5.670210e-02
5.398080e-02
5.180290e-02
5.016830e-02
4.907720e-02
7.882570e-02
7.542700e-02
7.277910e-02
7.088200e-02
6.973560e-02
9.679760e-02
9.317700e-02
9.047180e-02
8.868190e-02
8.780730e-02
0.000000e+00
0.000000e+00
0.000000e+00
0.000000e+00
0.000000e+00
2.583200e-02
2.527920e-02
2.503590e-02
2.510220e-02
2.547800e-02
4.907720e-02
4.828100e-02
4.799790e-02
4.822790e-02
4.897110e-02
6.973560e-02
6.900540e-02
6.888590e-02
6.937720e-02
7.047920e-02
8.780730e-02
8.745250e-02
8.770000e-02
8.855000e-02
9.000230e-02
0.000000e+00
0.000000e+00
0.000000e+00
0.000000e+00
0.000000e+00
2.547800e-02
2.598980e-02
2.668610e-02
2.756700e-02
2.863250e-02
4.897110e-02
4.997580e-02
5.132140e-02
5.300800e-02
5.503530e-02
7.047920e-02
7.195810e-02
7.390600e-02
7.632280e-02
7.920860e-02
9.000230e-02
9.193670e-02
9.443980e-02
9.751170e-02
1.011520e-01
0.000000e+00
0.000000e+00
0.000000e+00
0.000000e+00
0.000000e+00
2.863250e-02
2.987550e-02
3.140460e-02
3.321980e-02
3.532110e-02
5.503530e-02
5.738110e-02
6.022320e-02
6.356150e-02
6.739620e-02
7.920860e-02
8.251690e-02
8.645580e-02
9.102530e-02
9.622530e-02
1.011520e-01
1.052830e-01
1.101020e-01
1.156110e-01
1.218080e-01
0.000000e+00
0.000000e+00
0.000000e+00
0.000000e+00
0.000000e+00
3.532110e-02
3.765590e-02
4.043020e-02
4.364420e-02
4.729760e-02
6.739620e-02
7.164260e-02
7.663940e-02
8.238670e-02
8.888440e-02
9.622530e-02
1.019600e-01
1.086280e-01
1.162280e-01
1.247600e-01
1.218080e-01
1.286080e-01
1.363950e-01
1.451670e-01
1.549250e-01
0.000000e+00
0.000000e+00
0.000000e+00
0.000000e+00
0.000000e+00
4.729760e-02
5.121940e-02
5.588270e-02
6.128740e-02
6.743350e-02
8.888440e-02
9.584420e-02
1.040390e-01
1.134690e-01
1.241340e-01
1.247600e-01
1.338740e-01
1.444690e-01
1.565450e-01
1.701020e-01
1.549250e-01
1.653100e-01
1.771730e-01
1.905150e-01
2.053360e-01
0.000000e+00
0.000000e+00
0.000000e+00
0.000000e+00
0.000000e+00
6.743350e-02
7.377590e-02
8.129400e-02
8.998780e-02
9.985730e-02
1.241340e-01
1.351370e-01
1.480610e-01
1.629050e-01
1.796710e-01
1.701020e-01
1.840840e-01
2.003010e-01
2.187530e-01
2.394400e-01
2.053360e-01
2.206160e-01
2.380140e-01
2.575300e-01
2.791650e-01
0.000000e+00
0.000000e+00
0.000000e+00
0.000000e+00
0.000000e+00
9.985730e-02
1.099220e-01
1.213110e-01
1.340260e-01
1.480650e-01
1.796710e-01
1.968330e-01
2.161260e-01
2.375490e-01
2.611020e-01
2.394400e-01
2.607340e-01
2.844440e-01
3.105690e-01
3.391110e-01
2.791650e-01
3.016240e-01
3.262640e-01
3.530870e-01
3.820920e-01
0.000000e+00
0.000000e+00
0.000000e+00
0.000000e+00
0.000000e+00
1.480650e-01
1.635080e-01
1.789470e-01
1.943800e-01
2.098080e-01
2.611020e-01
2.871580e-01
3.132950e-01
3.395100e-01
3.658050e-01
3.391110e-01
3.709510e-01
4.030440e-01
4.353920e-01
4.679930e-01
3.820920e-01
4.148850e-01
4.481960e-01
4.820240e-01
5.163710e-01
0.000000e+00
0.000000e+00
0.000000e+00
0.000000e+00
0.000000e+00
2.098080e-01
2.286500e-01
2.442210e-01
2.565220e-01
2.655530e-01
3.658050e-01
3.979620e-01
4.252880e-01
4.477830e-01
4.654480e-01
4.679930e-01
5.079380e-01
5.432020e-01
5.737840e-01
5.996850e-01
5.163710e-01
5.585770e-01
5.979610e-01
6.345230e-01
6.682640e-01
0.000000e+00
0.000000e+00
0.000000e+00
0.000000e+00
0.000000e+00
2.655530e-01
2.732560e-01
2.754210e-01
2.720470e-01
2.631350e-01
4.654480e-01
4.815850e-01
4.891010e-01
4.879940e-01
4.782650e-01
5.996850e-01
6.249860e-01
6.410380e-01
6.478400e-01
6.453910e-01
6.682640e-01
7.034600e-01
7.312330e-01
7.515840e-01
7.645130e-01
0.000000e+00
0.000000e+00
0.000000e+00
0.000000e+00
0.000000e+00
2.631350e-01
2.409700e-01
2.168760e-01
1.908510e-01
1.628960e-01
4.782650e-01
4.470010e-01
4.108780e-01
3.698980e-01
3.240600e-01
6.453910e-01
6.180910e-01
5.820070e-01
5.371410e-01
4.834930e-01
7.645130e-01
7.542400e-01
7.302630e-01
6.925810e-01
6.411940e-01
0.000000e+00
0.000000e+00
0.000000e+00
0.000000e+00
0.000000e+00
1.628960e-01
1.325370e-01
1.057820e-01
8.262940e-02
6.308070e-02
3.240600e-01
2.699400e-01
2.203380e-01
1.752550e-01
1.346910e-01
4.834930e-01
4.122080e-01
3.436700e-01
2.778780e-01
2.148320e-01
6.411940e-01
5.593420e-01
4.757770e-01
3.904970e-01
3.035040e-01
0.000000e+00
0.000000e+00
0.000000e+00
0.000000e+00
0.000000e+00
6.308070e-02
4.979430e-02
3.651220e-02
2.323440e-02
9.960980e-03
1.346910e-01
1.061380e-01
7.874190e-02
5.250260e-02
2.742050e-02
2.148320e-01
1.690320e-01
1.266890e-01
8.780460e-02
5.237840e-02
3.035040e-01
2.384750e-01
1.803540e-01
1.291400e-01
8.483490e-02
0.000000e+00
0.000000e+00
0.000000e+00
0.000000e+00
0.000000e+00
9.960980e-03
1.383700e-03
-4.714500e-03
-8.333640e-03
-9.473710e-03
2.742050e-02
1.111720e-02
-3.426700e-04
-6.959200e-03
-8.732390e-03
5.237840e-02
2.920050e-02
1.311550e-02
4.123320e-03
2.223970e-03
8.483490e-02
5.563370e-02
3.566000e-02
2.491390e-02
2.339540e-02
0.000000e+00
0.000000e+00
0.000000e+00
0.000000e+00
0.000000e+00
-9.473710e-03
-1.052230e-02
-1.014040e-02
-8.327920e-03
-5.084940e-03
-8.732390e-03
-1.026500e-02
-9.465610e-03
-6.334240e-03
-8.708960e-04
2.223970e-03
7.719540e-04
2.024310e-03
5.981030e-03
1.264210e-02
2.339540e-02
2.258850e-02
2.432940e-02
2.861790e-02
3.545410e-02
0.000000e+00
0.000000e+00
0.000000e+00
0.000000e+00
0.000000e+00
-5.084940e-03
-3.233490e-03
-1.617290e-03
-2.363450e-04
9.093550e-04
-8.708960e-04
2.246000e-03
4.872140e-03
7.007530e-03
8.652170e-03
1.264210e-02
1.643850e-02
1.946830e-02
2.173160e-02
2.322840e-02
3.545410e-02
3.934390e-02
4.217120e-02
4.393600e-02
4.463820e-02
0.000000e+00
0.000000e+00
0.000000e+00
0.000000e+00
0.000000e+00
9.093550e-04
2.067990e-03
1.860590e-03
2.871360e-04
-2.652360e-03
8.652170e-03
1.012760e-02
9.637850e-03
7.182800e-03
2.762500e-03
2.322840e-02
2.417890e-02
2.333180e-02
2.068700e-02
1.624460e-02
4.463820e-02
4.422190e-02
4.294240e-02
4.079970e-02
3.779390e-02
1.002660e-01
1.094340e-01
1.148600e-01
1.165420e-01
1.144810e-01
9.945850e-02
1.078350e-01
1.138300e-01
1.174420e-01
1.186720e-01
9.848610e-02
1.058920e-01
1.119760e-01
1.167370e-01
1.201760e-01
9.734850e-02
1.036060e-01
1.092990e-01
1.144280e-01
1.189930e-01
9.604590e-02
1.009750e-01
1.057980e-01
1.105140e-01
1.151230e-01
1.144810e-01
1.102810e-01
1.059330e-01
1.014390e-01
9.679760e-02
1.186720e-01
1.173730e-01
1.153180e-01
1.125060e-01
1.089380e-01
1.201760e-01
1.211290e-01
1.209450e-01
1.196250e-01
1.171690e-01
1.189930e-01
1.215470e-01
1.228140e-01
1.227960e-01
1.214910e-01
1.151230e-01
1.186270e-01
1.209260e-01
1.220180e-01
1.219040e-01
9.679760e-02
9.317700e-02
9.047180e-02
8.868190e-02
8.780730e-02
1.089380e-01
1.058270e-01
1.035250e-01
1.020330e-01
1.013510e-01
1.171690e-01
1.147250e-01
1.129440e-01
1.118270e-01
1.113730e-01
1.214910e-01
1.198710e-01
1.187280e-01
1.180620e-01
1.178720e-01
1.219040e-01
1.212660e-01
1.208780e-01
1.207390e-01
1.208490e-01
8.780730e-02
8.745250e-02
8.770000e-02
8.855000e-02
9.000230e-02
1.013510e-01
1.012650e-01
1.017840e-01
1.029100e-01
1.046420e-01
1.113730e-01
1.115370e-01
1.122900e-01
1.136310e-01
1.155590e-01
1.178720e-01
1.182710e-01
1.192170e-01
1.207110e-01
1.227530e-01
1.208490e-01
1.214650e-01
1.225660e-01
1.241530e-01
1.262240e-01
9.000230e-02
9.193670e-02
9.443980e-02
9.751170e-02
1.011520e-01
1.046420e-01
1.068600e-01
1.096760e-01
1.130900e-01
1.171040e-01
1.155590e-01
1.179640e-01
1.209720e-01
1.245830e-01
1.287970e-01
1.227530e-01
1.252480e-01
1.283270e-01
1.319890e-01
1.362340e-01
1.262240e-01
1.287140e-01
1.317420e-01
1.353080e-01
1.394130e-01
1.011520e-01
1.052830e-01
1.101020e-01
1.156110e-01
1.218080e-01
1.171040e-01
1.216240e-01
1.268410e-01
1.327540e-01
1.393640e-01
1.287970e-01
1.335170e-01
1.389210e-01
1.450100e-01
1.517840e-01
1.362340e-01
1.409610e-01
1.463430e-01
1.523790e-01
1.590700e-01
1.394130e-01
1.439570e-01
1.491060e-01
1.548600e-01
1.612200e-01
1.218080e-01
1.286080e-01
1.363950e-01
1.451670e-01
1.549250e-01
1.393640e-01
1.465410e-01
1.546890e-01
1.638070e-01
1.738950e-01
1.517840e-01
1.590820e-01
1.673160e-01
1.764880e-01
1.865960e-01
1.590700e-01
1.662300e-01
1.742770e-01
1.832090e-01
1.930280e-01
1.612200e-01
1.679860e-01
1.755700e-01
1.839720e-01
1.931910e-01
1.549250e-01
1.653100e-01
1.771730e-01
1.905150e-01
2.053360e-01
1.738950e-01
1.845070e-01
1.965620e-01
2.100600e-01
2.250000e-01
1.865960e-01
1.971320e-01
2.090630e-01
2.223900e-01
2.371120e-01
1.930280e-01
2.031830e-01
2.146750e-01
2.275050e-01
2.416730e-01
1.931910e-01
2.026610e-01
2.134000e-01
2.254070e-01
2.386820e-01
2.053360e-01
2.206160e-01
2.380140e-01
2.575300e-01
2.791650e-01
2.250000e-01
2.401810e-01
2.574820e-01
2.769060e-01
2.984510e-01
2.371120e-01
2.518760e-01
2.687690e-01
2.877930e-01
3.089470e-01
2.416730e-01
2.557010e-01
2.718740e-01
2.901920e-01
3.106540e-01
2.386820e-01
2.516560e-01
2.667960e-01
2.841020e-01
3.035730e-01
2.791650e-01
3.016240e-01
3.262640e-01
3.530870e-01
3.820920e-01
2.984510e-01
3.204860e-01
3.448900e-01
3.716640e-01
4.008070e-01
3.089470e-01
3.302370e-01
3.541030e-01
3.805460e-01
4.095650e-01
3.106540e-01
3.308780e-01
3.539040e-01
3.797340e-01
4.083670e-01
3.035730e-01
3.224080e-01
3.442930e-01
3.692280e-01
3.972140e-01
3.820920e-01
4.148850e-01
4.481960e-01
4.820240e-01
5.163710e-01
4.008070e-01
4.336270e-01
4.673680e-01
5.020320e-01
5.376180e-01
4.095650e-01
4.420870e-01
4.759160e-01
5.110510e-01
5.474920e-01
4.083670e-01
4.402670e-01
4.738380e-01
5.090800e-01
5.459920e-01
3.972140e-01
4.281670e-01
4.611350e-01
4.961190e-01
5.331180e-01
5.163710e-01
5.585770e-01
5.979610e-01
6.345230e-01
6.682640e-01
5.376180e-01
5.822980e-01
6.245590e-01
6.644020e-01
7.018260e-01
5.474920e-01
5.943830e-01
6.391560e-01
6.818100e-01
7.223450e-01
5.459920e-01
5.948340e-01
6.417530e-01
6.867470e-01
7.298180e-01
5.331180e-01
5.836500e-01
6.323490e-01
6.792150e-01
7.242480e-01
6.682640e-01
7.034600e-01
7.312330e-01
7.515840e-01
7.645130e-01
7.018260e-01
7.438620e-01
7.790300e-01
8.073300e-01
8.287620e-01
7.223450e-01
7.706290e-01
8.123220e-01
8.474220e-01
8.759300e-01
7.298180e-01
7.837600e-01
8.311070e-01
8.718590e-01
9.060160e-01
7.242480e-01
7.832560e-01
8.353870e-01
8.806430e-01
9.190220e-01
7.645130e-01
7.542400e-01
7.302630e-01
6.925810e-01
6.411940e-01
8.287620e-01
8.308240e-01
8.202270e-01
7.969700e-01
7.610550e-01
8.759300e-01
8.875190e-01
8.875890e-01
8.761410e-01
8.531740e-01
9.060160e-01
9.243260e-01
9.323510e-01
9.300930e-01
9.175500e-01
9.190220e-01
9.412440e-01
9.545120e-01
9.588250e-01
9.541850e-01
6.411940e-01
5.593420e-01
4.757770e-01
3.904970e-01
3.035040e-01
7.610550e-01
6.872320e-01
6.041240e-01
5.117320e-01
4.100550e-01
8.531740e-01
7.893080e-01
7.109790e-01
6.181860e-01
5.109300e-01
9.175500e-01
8.655710e-01
7.963420e-01
7.098610e-01
6.061300e-01
9.541850e-01
9.160210e-01
8.602110e-01
7.867560e-01
6.956530e-01
3.035040e-01
2.384750e-01
1.803540e-01
1.291400e-01
8.483490e-02
4.100550e-01
3.255530e-01
2.503600e-01
1.844750e-01
1.278980e-01
5.109300e-01
4.130440e-01
3.246300e-01
2.456880e-01
1.762180e-01
6.061300e-01
5.009480e-01
4.031640e-01
3.127790e-01
2.297920e-01
6.956530e-01
5.892640e-01
4.859630e-01
3.857490e-01
2.886230e-01
8.483490e-02
5.563370e-02
3.566000e-02
2.491390e-02
2.339540e-02
1.278980e-01
9.136600e-02
6.583010e-02
5.129050e-02
4.774740e-02
1.762180e-01
1.316680e-01
9.973310e-02
8.041340e-02
7.370880e-02
2.297920e-01
1.765390e-01
1.373690e-01
1.122830e-01
1.012800e-01
2.886230e-01
2.259790e-01
1.787380e-01
1.468980e-01
1.304600e-01
2.339540e-02
2.258850e-02
2.432940e-02
2.861790e-02
3.545410e-02
4.774740e-02
4.568780e-02
4.661720e-02
5.053580e-02
5.744350e-02
7.370880e-02
6.925490e-02
6.846460e-02
7.133780e-02
7.787470e-02
1.012800e-01
9.328990e-02
8.987130e-02
9.102390e-02
9.674770e-02
1.304600e-01
1.177930e-01
1.108380e-01
1.095940e-01
1.140630e-01
3.545410e-02
3.934390e-02
4.217120e-02
4.393600e-02
4.463820e-02
5.744350e-02
6.106080e-02
6.338350e-02
6.441150e-02
6.414470e-02
7.787470e-02
8.104490e-02
8.273550e-02
8.294650e-02
8.167790e-02
9.674770e-02
9.929620e-02
1.002270e-01
9.954110e-02
9.723760e-02
1.140630e-01
1.158150e-01
1.158590e-01
1.141950e-01
1.108240e-01
4.463820e-02
4.422190e-02
4.294240e-02
4.079970e-02
3.779390e-02
6.414470e-02
6.316540e-02
6.138360e-02
5.879920e-02
5.541230e-02
8.167790e-02
8.004370e-02
7.770800e-02
7.467080e-02
7.093200e-02
9.723760e-02
9.485670e-02
9.191560e-02
8.841430e-02
8.435290e-02
1.108240e-01
1.076040e-01
1.040060e-01
1.000300e-01
9.567490e-02
9.604590e-02
1.009750e-01
1.057980e-01
1.105140e-01
1.151230e-01
9.458900e-02
9.899940e-02
1.033600e-01
1.076700e-01
1.119310e-01
9.299440e-02
9.702260e-02
1.009880e-01
1.048900e-01
1.087300e-01
9.126190e-02
9.504470e-02
9.868190e-02
1.021740e-01
1.055200e-01
8.939170e-02
9.306560e-02
9.644180e-02
9.952040e-02
1.023010e-01
1.151230e-01
1.186270e-01
1.209260e-01
1.220180e-01
1.219040e-01
1.119310e-01
1.154600e-01
1.180300e-01
1.196430e-01
1.202970e-01
1.087300e-01
1.121130e-01
1.147710e-01
1.167040e-01
1.179110e-01
1.055200e-01
1.085890e-01
1.111490e-01
1.132010e-01
1.147450e-01
1.023010e-01
1.048850e-01
1.071630e-01
1.091350e-01
1.108010e-01
1.219040e-01
1.212660e-01
1.208780e-01
1.207390e-01
1.208490e-01
1.202970e-01
1.203840e-01
1.205950e-01
1.209310e-01
1.213910e-01
1.179110e-01
1.185690e-01
1.192640e-01
1.199970e-01
1.207670e-01
1.147450e-01
1.158200e-01
1.168840e-01
1.179370e-01
1.189800e-01
1.108010e-01
1.121390e-01
1.134560e-01
1.147520e-01
1.160280e-01
1.208490e-01
1.214650e-01
1.225660e-01
1.241530e-01
1.262240e-01
1.213910e-01
1.222370e-01
1.234990e-01
1.251790e-01
1.272750e-01
1.207670e-01
1.218250e-01
1.232360e-01
1.249990e-01
1.271150e-01
1.189800e-01
1.202310e-01
1.217750e-01
1.236130e-01
1.257440e-01
1.160280e-01
1.174540e-01
1.191180e-01
1.210210e-01
1.231620e-01
1.262240e-01
1.287140e-01
1.317420e-01
1.353080e-01
1.394130e-01
1.272750e-01
1.297490e-01
1.327200e-01
1.361880e-01
1.401520e-01
1.271150e-01
1.295690e-01
1.324780e-01
1.358420e-01
1.396600e-01
1.257440e-01
1.281730e-01
1.310150e-01
1.342700e-01
1.379380e-01
1.231620e-01
1.255610e-01
1.283310e-01
1.314730e-01
1.349860e-01
1.394130e-01
1.439570e-01
1.491060e-01
1.548600e-01
1.612200e-01
1.401520e-01
1.445110e-01
1.494410e-01
1.549430e-01
1.610160e-01
1.396600e-01
1.438300e-01
1.485370e-01
1.537820e-01
1.595650e-01
1.379380e-01
1.419150e-01
1.463950e-01
1.513800e-01
1.568680e-01
1.349860e-01
1.387640e-01
1.430140e-01
1.477350e-01
1.529260e-01
1.612200e-01
1.679860e-01
1.755700e-01
1.839720e-01
1.931910e-01
1.610160e-01
1.674420e-01
1.746490e-01
1.826370e-01
1.914040e-01
1.595650e-01
1.656500e-01
1.724770e-01
1.800460e-01
1.883570e-01
1.568680e-01
1.626090e-01
1.690520e-01
1.761980e-01
1.840470e-01
1.529260e-01
1.583200e-01
1.643760e-01
1.710950e-01
1.784760e-01
1.931910e-01
2.026610e-01
2.134000e-01
2.254070e-01
2.386820e-01
1.914040e-01
2.003590e-01
2.105510e-01
2.219810e-01
2.346480e-01
1.883570e-01
1.967890e-01
2.064190e-01
2.172450e-01
2.292680e-01
1.840470e-01
1.919510e-01
2.010020e-01
2.111980e-01
2.225420e-01
1.784760e-01
1.858450e-01
1.943000e-01
2.038420e-01
2.144710e-01
2.386820e-01
2.516560e-01
2.667960e-01
2.841020e-01
3.035730e-01
2.346480e-01
2.468670e-01
2.613070e-01
2.779680e-01
2.968500e-01
2.292680e-01
2.407020e-01
2.543740e-01
2.702830e-01
2.884300e-01
2.225420e-01
2.331600e-01
2.459950e-01
2.610460e-01
2.783130e-01
2.144710e-01
2.242430e-01
2.361710e-01
2.502570e-01
2.664980e-01
3.035730e-01
3.224080e-01
3.442930e-01
3.692280e-01
3.972140e-01
2.968500e-01
3.145620e-01
3.356330e-01
3.600620e-01
3.878490e-01
2.884300e-01
3.048140e-01
3.248510e-01
3.485380e-01
3.758770e-01
2.783130e-01
2.931650e-01
3.119470e-01
3.346570e-01
3.612960e-01
2.664980e-01
2.796140e-01
2.969210e-01
3.184190e-01
3.441070e-01
3.972140e-01
4.281670e-01
4.611350e-01
4.961190e-01
5.331180e-01
3.878490e-01
4.178940e-01
4.503520e-01
4.852240e-01
5.225090e-01
3.758770e-01
4.044350e-01
4.358160e-01
4.700190e-01
5.070440e-01
3.612960e-01
3.877910e-01
4.175270e-01
4.505040e-01
4.867210e-01
3.441070e-01
3.679620e-01
3.954860e-01
4.266790e-01
4.615420e-01
5.331180e-01
5.836500e-01
6.323490e-01
6.792150e-01
7.242480e-01
5.225090e-01
5.749300e-01
6.253120e-01
6.736560e-01
7.199620e-01
5.070440e-01
5.605970e-01
6.116540e-01
6.602160e-01
7.062820e-01
4.867210e-01
5.406510e-01
5.913750e-01
6.388950e-01
6.832090e-01
4.615420e-01
5.150920e-01
5.644760e-01
6.096920e-01
6.507420e-01
7.242480e-01
7.832560e-01
8.353870e-01
8.806430e-01
9.190220e-01
7.199620e-01
7.841880e-01
8.408320e-01
8.898930e-01
9.313720e-01
7.062820e-01
7.744350e-01
8.344030e-01
8.861860e-01
9.297840e-01
6.832090e-01
7.539980e-01
8.161020e-01
8.695220e-01
9.142570e-01
6.507420e-01
7.228760e-01
7.859280e-01
8.399000e-01
8.847910e-01
9.190220e-01
9.412440e-01
9.545120e-01
9.588250e-01
9.541850e-01
9.313720e-01
9.570520e-01
9.739060e-01
9.819360e-01
9.811410e-01
9.297840e-01
9.580540e-01
9.781160e-01
9.899710e-01
9.936180e-01
9.142570e-01
9.442510e-01
9.671410e-01
9.829290e-01
9.916140e-01
8.847910e-01
9.156420e-01
9.409820e-01
9.608110e-01
9.751310e-01
9.541850e-01
9.160210e-01
8.602110e-01
7.867560e-01
6.956530e-01
9.811410e-01
9.461320e-01
8.971300e-01
8.341370e-01
7.571510e-01
9.936180e-01
9.607530e-01
9.175610e-01
8.640410e-01
8.001950e-01
9.916140e-01
9.598850e-01
9.215030e-01
8.764700e-01
8.247850e-01
9.751310e-01
9.435270e-01
9.089570e-01
8.714220e-01
8.309220e-01
6.956530e-01
5.892640e-01
4.859630e-01
3.857490e-01
2.886230e-01
7.571510e-01
6.560760e-01
5.536670e-01
4.499230e-01
3.448450e-01
8.001950e-01
7.067500e-01
6.080000e-01
5.039450e-01
3.945850e-01
8.247850e-01
7.412860e-01
6.489630e-01
5.478150e-01
4.378420e-01
8.309220e-01
7.596850e-01
6.765550e-01
5.815320e-01
4.746160e-01
2.886230e-01
2.259790e-01
1.787380e-01
1.468980e-01
1.304600e-01
3.448450e-01
2.764230e-01
2.229550e-01
1.844410e-01
1.608800e-01
3.945850e-01
3.228010e-01
2.649600e-01
2.210590e-01
1.911010e-01
4.378420e-01
3.651150e-01
3.047520e-01
2.567540e-01
2.211210e-01
4.746160e-01
4.033620e-01
3.423320e-01
2.915250e-01
2.509420e-01
1.304600e-01
1.177930e-01
1.108380e-01
1.095940e-01
1.140630e-01
1.608800e-01
1.423730e-01
1.309170e-01
1.265110e-01
1.291550e-01
1.911010e-01
1.670060e-01
1.510220e-01
1.431480e-01
1.433840e-01
2.211210e-01
1.916920e-01
1.711540e-01
1.595060e-01
1.567500e-01
2.509420e-01
2.164300e-01
1.913110e-01
1.755860e-01
1.692530e-01
1.140630e-01
1.158150e-01
1.158590e-01
1.141950e-01
1.108240e-01
1.291550e-01
1.301850e-01
1.293500e-01
1.266520e-01
1.220900e-01
1.433840e-01
1.433390e-01
1.413950e-01
1.375520e-01
1.318120e-01
1.567500e-01
1.552770e-01
1.519920e-01
1.468960e-01
1.399900e-01
1.692530e-01
1.659990e-01
1.611430e-01
1.546840e-01
1.466230e-01
1.108240e-01
1.076040e-01
1.040060e-01
1.000300e-01
9.567490e-02
1.220900e-01
1.178090e-01
1.134860e-01
1.091190e-01
1.047080e-01
1.318120e-01
1.264660e-01
1.214240e-01
1.166850e-01
1.122490e-01
1.399900e-01
1.335750e-01
1.278210e-01
1.227290e-01
1.182980e-01
1.466230e-01
1.391350e-01
1.326780e-01
1.272510e-01
1.228550e-01
8.939170e-02
9.306560e-02
9.644180e-02
9.952040e-02
1.023010e-01
8.740010e-02
9.081130e-02
9.390680e-02
9.668670e-02
9.915090e-02
8.530680e-02
8.845300e-02
9.127870e-02
9.378390e-02
9.596870e-02
8.311190e-02
8.599080e-02
8.855760e-02
9.081220e-02
9.275460e-02
8.081530e-02
8.342470e-02
8.574340e-02
8.777140e-02
8.950880e-02
1.023010e-01
1.048850e-01
1.071630e-01
1.091350e-01
1.108010e-01
9.915090e-02