<?xml version="1.0"?>
<VTKFile type="UnstructuredGrid" version="0.1" byte_order="LittleEndian" compressor="vtkZLibDataCompressor">
<UnstructuredGrid>
<Piece NumberOfPoints="10000" NumberOfCells="6400">
<Points>
<DataArray type="Float32" NumberOfComponents="3" format="ascii">
-3.360000e+00 0.000000e+00 0.000000e+00
-3.276000e+00 0.000000e+00 0.000000e+00
-3.192000e+00 0.000000e+00 0.000000e+00
-3.108000e+00 0.000000e+00 0.000000e+00
-3.024000e+00 0.000000e+00 0.000000e+00
-3.360000e+00 6.412500e-02 0.000000e+00
-3.276000e+00 6.412500e-02 0.000000e+00
-3.192000e+00 6.412500e-02 0.000000e+00
-3.108000e+00 6.412500e-02 0.000000e+00
-3.024000e+00 6.412500e-02 0.000000e+00
-3.360000e+00 1.282500e-01 0.000000e+00
-3.276000e+00 1.282500e-01 0.000000e+00
-3.192000e+00 1.282500e-01 0.000000e+00
-3.108000e+00 1.282500e-01 0.000000e+00
-3.024000e+00 1.282500e-01 0.000000e+00
-3.360000e+00 1.923750e-01 0.000000e+00
-3.276000e+00 1.923750e-01 0.000000e+00
-3.192000e+00 1.923750e-01 0.000000e+00
-3.108000e+00 1.923750e-01 0.000000e+00
-3.024000e+00 1.923750e-01 0.000000e+00
-3.360000e+00 2.565000e-01 0.000000e+00
-3.276000e+00 2.565000e-01 0.000000e+00
-3.192000e+00 2.565000e-01 0.000000e+00
-3.108000e+00 2.565000e-01 0.000000e+00
-3.024000e+00 2.565000e-01 0.000000e+00
-3.024000e+00 0.000000e+00 0.000000e+00
-2.940000e+00 0.000000e+00 0.000000e+00
-2.856000e+00 0.000000e+00 0.000000e+00
-2.772000e+00 0.000000e+00 0.000000e+00
-2.688000e+00 0.000000e+00 0.000000e+00
-3.024000e+00 6.412500e-02 0.000000e+00
-2.940000e+00 6.412500e-02 0.000000e+00
-2.856000e+00 6.412500e-02 0.000000e+00
-2.772000e+00 6.412500e-02 0.000000e+00
-2.688000e+00 6.412500e-02 0.000000e+00
-3.024000e+00 1.282500e-01 0.000000e+00
-2.940000e+00 1.282500e-01 0.000000e+00
-2.856000e+00 1.282500e-01 0.000000e+00
-2.772000e+00 1.282500e-01 0.000000e+00
-2.688000e+00 1.282500e-01 0.000000e+00
-3.024000e+00 1.923750e-01 0.000000e+00
-2.940000e+00 1.923750e-01 0.000000e+00
-2.856000e+00 1.923750e-01 0.000000e+00
-2.772000e+00 1.923750e-01 0.000000e+00
-2.688000e+00 1.923750e-01 0.000000e+00
-3.024000e+00 2.565000e-01 0.000000e+00
-2.940000e+00 2.565000e-01 0.000000e+00
-2.856000e+00 2.565000e-01 0.000000e+00
-2.772000e+00 2.565000e-01 0.000000e+00
-2.688000e+00 2.565000e-01 0.000000e+00
-2.688000e+00 0.000000e+00 0.000000e+00
-2.604000e+00 0.000000e+00 0.000000e+00
-2.520000e+00 0.000000e+00 0.000000e+00
-2.436000e+00 0.000000e+00 0.000000e+00
-2.352000e+00 0.000000e+00 0.000000e+00
-2.688000e+00 6.412500e-02 0.000000e+00
-2.604000e+00 6.412500e-02 0.000000e+00
-2.520000e+00 6.412500e-02 0.000000e+00
-2.436000e+00 6.412500e-02 0.000000e+00
-2.352000e+00 6.412500e-02 0.000000e+00
-2.688000e+00 1.282500e-01 0.000000e+00
-2.604000e+00 1.282500e-01 0.000000e+00
-2.520000e+00 1.282500e-01 0.000000e+00
-2.436000e+00 1.282500e-01 0.000000e+00
-2.352000e+00 1.282500e-01 0.000000e+00
-2.688000e+00 1.923750e-01 0.000000e+00
-2.604000e+00 1.923750e-01 0.000000e+00
-2.520000e+00 1.923750e-01 0.000000e+00
-2.436000e+00 1.923750e-01 0.000000e+00
-2.352000e+00 1.923750e-01 0.000000e+00
-2.688000e+00 2.565000e-01 0.000000e+00
-2.604000e+00 2.565000e-01 0.000000e+00
-2.520000e+00 2.565000e-01 0.000000e+00
-2.436000e+00 2.565000e-01 0.000000e+00
-2.352000e+00 2.565000e-01 0.000000e+00
-2.352000e+00 0.000000e+00 0.000000e+00
-2.268000e+00 0.000000e+00 0.000000e+00
-2.184000e+00 0.000000e+00 0.000000e+00
-2.100000e+00 0.000000e+00 0.000000e+00
-2.016000e+00 0.000000e+00 0.000000e+00
-2.352000e+00 6.412500e-02 0.000000e+00
-2.268000e+00 6.412500e-02 0.000000e+00
-2.184000e+00 6.412500e-02 0.000000e+00
-2.100000e+00 6.412500e-02 0.000000e+00
-2.016000e+00 6.412500e-02 0.000000e+00
-2.352000e+00 1.282500e-01 0.000000e+00
-2.268000e+00 1.282500e-01 0.000000e+00
-2.184000e+00 1.282500e-01 0.000000e+00
-2.100000e+00 1.282500e-01 0.000000e+00
-2.016000e+00 1.282500e-01 0.000000e+00
-2.352000e+00 1.923750e-01 0.000000e+00
-2.268000e+00 1.923750e-01 0.000000e+00
-2.184000e+00 1.923750e-01 0.000000e+00
-2.100000e+00 1.923750e-01 0.000000e+00
-2.016000e+00 1.923750e-01 0.000000e+00
-2.352000e+00 2.565000e-01 0.000000e+00
-2.268000e+00 2.565000e-01 0.000000e+00
-2.184000e+00 2.565000e-01 0.000000e+00
-2.100000e+00 2.565000e-01 0.000000e+00
-2.016000e+00 2.565000e-01 0.000000e+00
-2.016000e+00 0.000000e+00 0.000000e+00
-1.932000e+00 0.000000e+00 0.000000e+00
-1.848000e+00 0.000000e+00 0.000000e+00
-1.764000e+00 0.000000e+00 0.000000e+00
-1.680000e+00 0.000000e+00 0.000000e+00
-2.016000e+00 6.412500e-02 0.000000e+00
-1.932000e+00 6.412500e-02 0.000000e+00
-1.848000e+00 6.412500e-02 0.000000e+00
-1.764000e+00 6.412500e-02 0.000000e+00
-1.680000e+00 6.412500e-02 0.000000e+00
-2.016000e+00 1.282500e-01 0.000000e+00
-1.932000e+00 1.282500e-01 0.000000e+00
-1.848000e+00 1.282500e-01 0.000000e+00
-1.764000e+00 1.282500e-01 0.000000e+00
-1.680000e+00 1.282500e-01 0.000000e+00
-2.016000e+00 1.923750e-01 0.000000e+00
-1.932000e+00 1.923750e-01 0.000000e+00
-1.848000e+00 1.923750e-01 0.000000e+00
-1.764000e+00 1.923750e-01 0.000000e+00
-1.680000e+00 1.923750e-01 0.000000e+00
-2.016000e+00 2.565000e-01 0.000000e+00
-1.932000e+00 2.565000e-01 0.000000e+00
-1.848000e+00 2.565000e-01 0.000000e+00
-1.764000e+00 2.565000e-01 0.000000e+00
-1.680000e+00 2.565000e-01 0.000000e+00
-1.680000e+00 0.000000e+00 0.000000e+00
-1.596000e+00 0.000000e+00 0.000000e+00
-1.512000e+00 0.000000e+00 0.000000e+00
-1.428000e+00 0.000000e+00 0.000000e+00
-1.344000e+00 0.000000e+00 0.000000e+00
-1.680000e+00 6.412500e-02 0.000000e+00
-1.596000e+00 6.412500e-02 0.000000e+00
-1.512000e+00 6.412500e-02 0.000000e+00
-1.428000e+00 6.412500e-02 0.000000e+00
-1.344000e+00 6.412500e-02 0.000000e+00
-1.680000e+00 1.282500e-01 0.000000e+00
-1.596000e+00 1.282500e-01 0.000000e+00
-1.512000e+00 1.282500e-01 0.000000e+00
-1.428000e+00 1.282500e-01 0.000000e+00
-1.344000e+00 1.282500e-01 0.000000e+00
-1.680000e+00 1.923750e-01 0.000000e+00
-1.596000e+00 1.923750e-01 0.000000e+00
-1.512000e+00 1.923750e-01 0.000000e+00
-1.428000e+00 1.923750e-01 0.000000e+00
-1.344000e+00 1.923750e-01 0.000000e+00
-1.680000e+00 2.565000e-01 0.000000e+00
-1.596000e+00 2.565000e-01 0.000000e+00
-1.512000e+00 2.565000e-01 0.000000e+00
-1.428000e+00 2.565000e-01 0.000000e+00
-1.344000e+00 2.565000e-01 0.000000e+00
-1.344000e+00 0.000000e+00 0.000000e+00
-1.260000e+00 0.000000e+00 0.000000e+00
-1.176000e+00 0.000000e+00 0.000000e+00
-1.092000e+00 0.000000e+00 0.000000e+00
-1.008000e+00 0.000000e+00 0.000000e+00
-1.344000e+00 6.412500e-02 0.000000e+00
-1.260000e+00 6.412500e-02 0.000000e+00
-1.176000e+00 6.412500e-02 0.000000e+00
-1.092000e+00 6.412500e-02 0.000000e+00
-1.008000e+00 6.412500e-02 0.000000e+00
-1.344000e+00 1.282500e-01 0.000000e+00
-1.260000e+00 1.282500e-01 0.000000e+00
-1.176000e+00 1.282500e-01 0.000000e+00
-1.092000e+00 1.282500e-01 0.000000e+00
-1.008000e+00 1.282500e-01 0.000000e+00
-1.344000e+00 1.923750e-01 0.000000e+00
-1.260000e+00 1.923750e-01 0.000000e+00
-1.176000e+00 1.923750e-01 0.000000e+00
-1.092000e+00 1.923750e-01 0.000000e+00
-1.008000e+00 1.923750e-01 0.000000e+00
-1.344000e+00 2.565000e-01 0.000000e+00
-1.260000e+00 2.565000e-01 0.000000e+00
-1.176000e+00 2.565000e-01 0.000000e+00
-1.092000e+00 2.565000e-01 0.000000e+00
-1.008000e+00 2.565000e-01 0.000000e+00
-1.008000e+00 0.000000e+00 0.000000e+00
-9.240000e-01 0.000000e+00 0.000000e+00
-8.400000e-01 0.000000e+00 0.000000e+00
-7.560000e-01 0.000000e+00 0.000000e+00
-6.720000e-01 0.000000e+00 0.000000e+00
-1.008000e+00 6.412500e-02 0.000000e+00
-9.240000e-01 6.412500e-02 0.000000e+00
-8.400000e-01 6.412500e-02 0.000000e+00
-7.560000e-01 6.412500e-02 0.000000e+00
-6.720000e-01 6.412500e-02 0.000000e+00
-1.008000e+00 1.282500e-01 0.000000e+00
-9.240000e-01 1.282500e-01 0.000000e+00
-8.400000e-01 1.282500e-01 0.000000e+00
-7.560000e-01 1.282500e-01 0.000000e+00
-6.720000e-01 1.282500e-01 0.000000e+00
-1.008000e+00 1.923750e-01 0.000000e+00
-9.240000e-01 1.923750e-01 0.000000e+00
-8.400000e-01 1.923750e-01 0.000000e+00
-7.560000e-01 1.923750e-01 0.000000e+00
-6.720000e-01 1.923750e-01 0.000000e+00
-1.008000e+00 2.565000e-01 0.000000e+00
-9.240000e-01 2.565000e-01 0.000000e+00
-8.400000e-01 2.565000e-01 0.000000e+00
-7.560000e-01 2.565000e-01 0.000000e+00
-6.720000e-01 2.565000e-01 0.000000e+00
-6.720000e-01 0.000000e+00 0.000000e+00
-5.880000e-01 0.000000e+00 0.000000e+00
-5.040000e-01 0.000000e+00 0.000000e+00
-4.200000e-01 0.000000e+00 0.000000e+00
-3.360000e-01 0.000000e+00 0.000000e+00
-6.720000e-01 6.412500e-02 0.000000e+00
-5.880000e-01 6.412500e-02 0.000000e+00
-5.040000e-01 6.412500e-02 0.000000e+00
-4.200000e-01 6.412500e-02 0.000000e+00
-3.360000e-01 6.412500e-02 0.000000e+00
-6.720000e-01 1.282500e-01 0.000000e+00
-5.880000e-01 1.282500e-01 0.000000e+00
-5.040000e-01 1.282500e-01 0.000000e+00
-4.200000e-01 1.282500e-01 0.000000e+00
-3.360000e-01 1.282500e-01 0.000000e+00
-6.720000e-01 1.923750e-01 0.000000e+00
-5.880000e-01 1.923750e-01 0.000000e+00
-5.040000e-01 1.923750e-01 0.000000e+00
-4.200000e-01 1.923750e-01 0.000000e+00
-3.360000e-01 1.923750e-01 0.000000e+00
-6.720000e-01 2.565000e-01 0.000000e+00
-5.880000e-01 2.565000e-01 0.000000e+00
-5.040000e-01 2.565000e-01 0.000000e+00
-4.200000e-01 2.565000e-01 0.000000e+00
-3.360000e-01 2.565000e-01 0.000000e+00
-3.360000e-01 0.000000e+00 0.000000e+00
-2.520000e-01 0.000000e+00 0.000000e+00
-1.680000e-01 0.000000e+00 0.000000e+00
-8.400000e-02 0.000000e+00 0.000000e+00
-4.440890e-16 0.000000e+00 0.000000e+00
-3.360000e-01 6.412500e-02 0.000000e+00
-2.520000e-01 6.412500e-02 0.000000e+00
-1.680000e-01 6.412500e-02 0.000000e+00
-8.400000e-02 6.412500e-02 0.000000e+00
-4.440890e-16 6.412500e-02 0.000000e+00
-3.360000e-01 1.282500e-01 0.000000e+00
-2.520000e-01 1.282500e-01 0.000000e+00
-1.680000e-01 1.282500e-01 0.000000e+00
-8.400000e-02 1.282500e-01 0.000000e+00
-4.440890e-16 1.282500e-01 0.000000e+00
-3.360000e-01 1.923750e-01 0.000000e+00
-2.520000e-01 1.923750e-01 0.000000e+00
-1.680000e-01 1.923750e-01 0.000000e+00
[...]
<PointData>
<DataArray type="Float32" Name="V1" format="ascii">
0.000000e+00
0.000000e+00
0.000000e+00
0.000000e+00
0.000000e+00
6.347820e-02
6.009780e-02
5.719070e-02
5.475680e-02
5.279620e-02
1.013490e-01
9.837060e-02
9.563200e-02
9.313280e-02
9.087290e-02
1.136110e-01
1.148180e-01
1.153240e-01
1.151280e-01
1.142300e-01
1.002660e-01
1.094410e-01
1.162670e-01
1.207420e-01
1.228680e-01
0.000000e+00
0.000000e+00
0.000000e+00
0.000000e+00
0.000000e+00
5.279620e-02
5.081150e-02
5.016780e-02
5.086510e-02
5.290340e-02
9.087290e-02
8.859300e-02
8.820760e-02
8.971660e-02
9.312010e-02
1.142300e-01
1.133450e-01
1.141190e-01
1.165550e-01
1.206500e-01
1.228680e-01
1.250660e-01
1.279030e-01
1.313790e-01
1.354930e-01
0.000000e+00
0.000000e+00
0.000000e+00
0.000000e+00
0.000000e+00
5.290340e-02
5.495650e-02
5.726200e-02
5.981970e-02
6.262970e-02
9.312010e-02
9.665740e-02
1.006760e-01
1.051750e-01
1.101550e-01
1.206500e-01
1.251030e-01
1.302410e-01
1.360660e-01
1.425760e-01
1.354930e-01
1.402920e-01
1.459580e-01
1.524920e-01
1.598930e-01
0.000000e+00
0.000000e+00
0.000000e+00
0.000000e+00
0.000000e+00
6.262970e-02
6.556220e-02
6.912510e-02
7.331850e-02
7.814230e-02
1.101550e-01
1.153650e-01
1.215940e-01
1.288450e-01
1.371150e-01
1.425760e-01
1.494070e-01
1.574080e-01
1.665780e-01
1.769190e-01
1.598930e-01
1.676900e-01
1.765650e-01
1.865200e-01
1.975530e-01
0.000000e+00
0.000000e+00
0.000000e+00
0.000000e+00
0.000000e+00
7.814230e-02
8.305780e-02
8.897350e-02
9.588940e-02
1.038060e-01
1.371150e-01
1.455430e-01
1.556200e-01
1.673460e-01
1.807210e-01
1.769190e-01
1.874550e-01
1.999390e-01
2.143690e-01
2.307450e-01
1.975530e-01
2.087950e-01
2.219310e-01
2.369590e-01
2.538790e-01
0.000000e+00
0.000000e+00
0.000000e+00
0.000000e+00
0.000000e+00
1.038060e-01
1.113020e-01
1.207830e-01
1.322480e-01
1.456980e-01
1.807210e-01
1.933980e-01
2.092680e-01
2.283330e-01
2.505920e-01
2.307450e-01
2.462860e-01
2.654550e-01
2.882540e-01
3.146820e-01
2.538790e-01
2.699660e-01
2.893430e-01
3.120100e-01
3.379680e-01
0.000000e+00
0.000000e+00
0.000000e+00
0.000000e+00
0.000000e+00
1.456980e-01
1.579140e-01
1.732630e-01
1.917460e-01
2.133630e-01
2.505920e-01
2.709020e-01
2.961370e-01
3.262970e-01
3.613820e-01
3.146820e-01
3.389650e-01
3.686220e-01
4.036530e-01
4.440560e-01
3.379680e-01
3.621030e-01
3.907180e-01
4.238130e-01
4.613870e-01
0.000000e+00
0.000000e+00
0.000000e+00
0.000000e+00
0.000000e+00
2.133630e-01
2.352000e-01
2.594380e-01
2.860750e-01
3.151120e-01
3.613820e-01
3.972270e-01
4.367430e-01
4.799300e-01
5.267870e-01
4.440560e-01
4.860810e-01
5.319170e-01
5.815640e-01
6.350240e-01
4.613870e-01
5.017610e-01
5.449580e-01
5.909790e-01
6.398230e-01
0.000000e+00
0.000000e+00
0.000000e+00
0.000000e+00
0.000000e+00
3.151120e-01
3.521730e-01
3.867490e-01
4.188390e-01
4.484440e-01
5.267870e-01
5.868000e-01
6.433670e-01
6.964890e-01
7.461660e-01
6.350240e-01
7.038790e-01
7.698550e-01
8.329510e-01
8.931680e-01
6.398230e-01
7.034120e-01
7.662130e-01
8.282250e-01
8.894480e-01
0.000000e+00
0.000000e+00
0.000000e+00
0.000000e+00
0.000000e+00
4.484440e-01
4.908730e-01
5.235610e-01
5.465070e-01
5.597130e-01
7.461660e-01
8.165840e-01
8.729750e-01
9.153390e-01
9.436760e-01
8.931680e-01
9.771340e-01
1.048240e+00
1.106500e+00
1.151890e+00
8.894480e-01
9.725220e-01
1.049370e+00
1.119980e+00
1.184360e+00
0.000000e+00
0.000000e+00
0.000000e+00
0.000000e+00
0.000000e+00
5.597130e-01
5.620720e-01
5.552050e-01
5.391100e-01
5.137880e-01
9.436760e-01
9.557390e-01
9.537420e-01
9.376870e-01
9.075730e-01
1.151890e+00
1.181000e+00
1.195610e+00
1.195730e+00
1.181360e+00
1.184360e+00
1.237850e+00
1.280810e+00
1.313240e+00
1.335140e+00
0.000000e+00
0.000000e+00
0.000000e+00
0.000000e+00
0.000000e+00
5.137880e-01
4.564930e-01
4.012100e-01
3.479400e-01
2.966820e-01
9.075730e-01
8.253380e-01
7.431900e-01
6.611270e-01
5.791490e-01
1.181360e+00
1.106540e+00
1.025940e+00
9.395600e-01
8.474030e-01
1.335140e+00
1.300090e+00
1.249460e+00
1.183240e+00
1.101440e+00
0.000000e+00
0.000000e+00
0.000000e+00
0.000000e+00
0.000000e+00
2.966820e-01
2.493010e-01
2.130380e-01
1.878920e-01
1.738650e-01
5.791490e-01
4.987520e-01
4.344010e-01
3.860980e-01
3.538420e-01
8.474030e-01
7.483530e-01
6.640900e-01
5.946170e-01
5.399310e-01
1.101440e+00
9.981040e-01
9.021050e-01
8.134490e-01
7.321330e-01
0.000000e+00
0.000000e+00
0.000000e+00
0.000000e+00
0.000000e+00
1.738650e-01
1.604200e-01
1.500660e-01
1.428040e-01
1.386320e-01
3.538420e-01
3.243750e-01
3.002320e-01
2.814120e-01
2.679150e-01
5.399310e-01
4.918660e-01
4.504970e-01
4.158250e-01
3.878480e-01
7.321330e-01
6.628930e-01
6.008620e-01
5.460420e-01
4.984320e-01
0.000000e+00
0.000000e+00
0.000000e+00
0.000000e+00
0.000000e+00
1.386320e-01
1.369630e-01
1.331500e-01
1.271940e-01
1.190950e-01
2.679150e-01
2.600410e-01
2.493980e-01
2.359840e-01
2.198010e-01
3.878480e-01
3.692350e-01
3.487420e-01
3.263700e-01
3.021180e-01
4.984320e-01
4.645440e-01
4.311830e-01
3.983510e-01
3.660470e-01
0.000000e+00
0.000000e+00
0.000000e+00
0.000000e+00
0.000000e+00
1.190950e-01
1.141170e-01
1.086270e-01
1.026260e-01
9.611200e-02
2.198010e-01
2.086530e-01
1.971650e-01
1.853360e-01
1.731670e-01
3.021180e-01
2.836090e-01
2.656140e-01
2.481330e-01
2.311650e-01
3.660470e-01
3.389850e-01
3.139740e-01
2.910140e-01
2.701050e-01
0.000000e+00
0.000000e+00
0.000000e+00
0.000000e+00
0.000000e+00
9.611200e-02
9.103440e-02
8.605100e-02
8.116180e-02
7.636680e-02
1.731670e-01
1.634280e-01
1.540110e-01
1.449170e-01
1.361460e-01
2.311650e-01
2.171800e-01
2.038810e-01
1.912660e-01
1.793370e-01
2.701050e-01
2.522910e-01
2.356590e-01
2.202090e-01
2.059400e-01
0.000000e+00
0.000000e+00
0.000000e+00
0.000000e+00
0.000000e+00
7.636680e-02
7.238410e-02
6.853760e-02
6.482750e-02
6.125370e-02
1.361460e-01
1.287540e-01
1.216900e-01
1.149530e-01
1.085430e-01
1.793370e-01
1.691100e-01
1.594570e-01
1.503760e-01
1.418670e-01
2.059400e-01
1.934530e-01
1.818380e-01
1.710960e-01
1.612270e-01
0.000000e+00
0.000000e+00
0.000000e+00
0.000000e+00
0.000000e+00
6.125370e-02
5.811140e-02
5.508960e-02
5.218830e-02
4.940760e-02
1.085430e-01
1.028520e-01
9.742640e-02
9.226490e-02
8.736800e-02
1.418670e-01
1.342230e-01
1.270100e-01
1.202300e-01
1.138810e-01
1.612270e-01
1.522230e-01
1.438420e-01
1.360830e-01
1.289470e-01
0.000000e+00
0.000000e+00
0.000000e+00
0.000000e+00
0.000000e+00
4.940760e-02
4.723290e-02
4.457230e-02
4.142610e-02
3.779410e-02
8.736800e-02
8.326070e-02
7.865740e-02
7.355810e-02
6.796290e-02
1.138810e-01
1.080830e-01
1.022550e-01
9.639610e-02
9.050640e-02
1.289470e-01
1.217010e-01
1.153660e-01
1.099400e-01
1.054250e-01
1.002660e-01
1.094410e-01
1.162670e-01
1.207420e-01
1.228680e-01
9.945850e-02
1.072880e-01
1.137130e-01
1.187320e-01
1.223450e-01
9.848610e-02
1.050380e-01
1.108970e-01
1.160640e-01
1.205380e-01
9.734850e-02
1.026900e-01
1.078200e-01
1.127390e-01
1.174460e-01
9.604590e-02
1.002450e-01
1.044820e-01
1.087570e-01
1.130690e-01
1.228680e-01
1.250660e-01
1.279030e-01
1.313790e-01
1.354930e-01
1.223450e-01
1.256220e-01
1.292630e-01
1.332660e-01
1.376320e-01
1.205380e-01
1.245530e-01
1.287400e-01
1.330970e-01
1.376250e-01
1.174460e-01
1.218590e-01
1.263350e-01
1.308720e-01
1.354720e-01
1.130690e-01
1.175400e-01
1.220480e-01
1.265920e-01
1.311730e-01
1.354930e-01
1.402920e-01
1.459580e-01
1.524920e-01
1.598930e-01
1.376320e-01
1.424800e-01
1.481770e-01
1.547230e-01
1.621180e-01
1.376250e-01
1.425050e-01
1.481900e-01
1.546780e-01
1.619700e-01
1.354720e-01
1.403680e-01
1.459960e-01
1.523570e-01
1.594490e-01
1.311730e-01
1.360680e-01
1.415970e-01
1.477590e-01
1.545560e-01
1.598930e-01
1.676900e-01
1.765650e-01
1.865200e-01
1.975530e-01
1.621180e-01
1.699210e-01
1.787740e-01
1.886770e-01
1.996310e-01
1.619700e-01
1.696690e-01
1.783810e-01
1.881050e-01
1.988420e-01
1.594490e-01
1.669360e-01
1.753870e-01
1.848040e-01
1.951860e-01
1.545560e-01
1.617200e-01
1.697920e-01
1.787740e-01
1.886630e-01
1.975530e-01
2.087950e-01
2.219310e-01
2.369590e-01
2.538790e-01
1.996310e-01
2.106990e-01
2.236300e-01
2.384260e-01
2.550850e-01
1.988420e-01
2.096450e-01
2.222500e-01
2.366550e-01
2.528600e-01
1.951860e-01
2.056350e-01
2.177880e-01
2.316450e-01
2.472050e-01
1.886630e-01
1.986690e-01
2.102460e-01
2.233960e-01
2.381190e-01
2.538790e-01
2.699660e-01
2.893430e-01
3.120100e-01
3.379680e-01
2.550850e-01
2.706260e-01
2.895660e-01
3.119040e-01
3.376420e-01
2.528600e-01
2.678040e-01
2.861620e-01
3.079330e-01
3.331180e-01
2.472050e-01
2.615010e-01
2.791320e-01
3.000970e-01
3.243970e-01
2.381190e-01
2.517160e-01
2.684750e-01
2.883960e-01
3.114780e-01
3.379680e-01
3.621030e-01
3.907180e-01
4.238130e-01
4.613870e-01
3.376420e-01
3.606460e-01
3.886540e-01
4.216650e-01
4.596790e-01
3.331180e-01
3.548270e-01
3.819720e-01
4.145560e-01
4.525770e-01
3.243970e-01
3.446430e-01
3.706720e-01
4.024840e-01
4.400790e-01
3.114780e-01
3.300960e-01
3.547530e-01
3.854500e-01
4.221870e-01
4.613870e-01
5.017610e-01
5.449580e-01
5.909790e-01
6.398230e-01
4.596790e-01
4.989240e-01
5.420140e-01
5.889500e-01
6.397320e-01
4.525770e-01
4.900290e-01
5.324180e-01
5.797460e-01
6.320110e-01
4.400790e-01
4.750760e-01
5.161710e-01
5.633650e-01
6.166570e-01
4.221870e-01
4.540650e-01
4.932730e-01
5.398090e-01
5.936730e-01
6.398230e-01
7.034120e-01
7.662130e-01
8.282250e-01
8.894480e-01
6.397320e-01
7.071400e-01
7.735460e-01
8.389510e-01
9.033550e-01
6.320110e-01
7.017460e-01
7.706030e-01
8.385810e-01
9.056810e-01
6.166570e-01
6.872320e-01
7.573850e-01
8.271160e-01
8.964260e-01
5.936730e-01
6.635970e-01
7.338910e-01
8.045550e-01
8.755890e-01
8.894480e-01
9.725220e-01
1.049370e+00
1.119980e+00
1.184360e+00
9.033550e-01
9.948210e-01
1.078940e+00
1.155710e+00
1.225130e+00
9.056810e-01
1.006310e+00
1.099090e+00
1.184030e+00
1.261130e+00
8.964260e-01
1.006980e+00
1.109820e+00
1.204950e+00
1.292360e+00
8.755890e-01
9.968440e-01
1.111130e+00
1.218460e+00
1.318820e+00
1.184360e+00
1.237850e+00
1.280810e+00
1.313240e+00
1.335140e+00
1.225130e+00
1.288510e+00
1.339370e+00
1.377700e+00
1.403510e+00
1.261130e+00
1.335030e+00
1.394130e+00
1.438460e+00
1.467990e+00
1.292360e+00
1.377390e+00
1.445100e+00
1.495500e+00
1.528570e+00
1.318820e+00
1.415610e+00
1.492280e+00
1.548820e+00
1.585250e+00
1.335140e+00
1.300090e+00
1.249460e+00
1.183240e+00
1.101440e+00
1.403510e+00
1.368110e+00
1.322210e+00
1.265810e+00
1.198910e+00
1.467990e+00
1.424700e+00
1.375060e+00
1.319060e+00
1.256710e+00
1.528570e+00
1.469850e+00
1.407990e+00
1.343000e+00
1.274860e+00
1.585250e+00
1.503570e+00
1.421020e+00
1.337620e+00
1.253350e+00
1.101440e+00
9.981040e-01
9.021050e-01
8.134490e-01
7.321330e-01
1.198910e+00
1.106400e+00
1.015180e+00
9.252420e-01
8.365880e-01
1.256710e+00
1.169570e+00
1.080330e+00
9.889830e-01
8.955380e-01
1.274860e+00
1.187610e+00
1.097550e+00
1.004670e+00
9.089840e-01
1.253350e+00
1.160520e+00
1.066840e+00
9.723090e-01
8.769250e-01
7.321330e-01
6.628930e-01
6.008620e-01
5.460420e-01
4.984320e-01
8.365880e-01
7.559330e-01
6.811380e-01
6.122020e-01
5.491270e-01
8.955380e-01
8.089570e-01
7.265950e-01
6.484510e-01
5.745240e-01
9.089840e-01
8.219660e-01
7.372340e-01
6.547870e-01
5.746250e-01
8.769250e-01
7.949600e-01
7.130560e-01
6.312120e-01
5.494300e-01
4.984320e-01
4.645440e-01
4.311830e-01
3.983510e-01
3.660470e-01
5.491270e-01
5.050790e-01
4.634730e-01
4.243080e-01
3.875850e-01
5.745240e-01
5.243610e-01
4.780000e-01
4.354420e-01
3.966880e-01
5.746250e-01
5.223880e-01
4.747640e-01
4.317530e-01
3.933550e-01
5.494300e-01
4.991620e-01
4.537660e-01
4.132410e-01
3.775880e-01
3.660470e-01
3.389850e-01
3.139740e-01
2.910140e-01
2.701050e-01
3.875850e-01
3.565920e-01
3.283790e-01
3.029460e-01
2.802930e-01
3.966880e-01
3.633190e-01
3.332800e-01
3.065710e-01
2.831920e-01
3.933550e-01
3.591650e-01
3.286770e-01
3.018890e-01
2.788030e-01
3.775880e-01
3.441310e-01
3.145690e-01
2.889000e-01
2.671260e-01
2.701050e-01
2.522910e-01
2.356590e-01
2.202090e-01
2.059400e-01
2.802930e-01
2.613340e-01
2.436960e-01
2.273790e-01
2.123820e-01
2.831920e-01
2.639240e-01
2.460040e-01
2.294330e-01
2.142120e-01
2.788030e-01
2.600600e-01
2.425830e-01
2.263720e-01
2.114280e-01
2.671260e-01
2.497430e-01
2.334330e-01
2.181960e-01
2.040320e-01
2.059400e-01
1.934530e-01
1.818380e-01
1.710960e-01
1.612270e-01
2.123820e-01
1.992920e-01
1.871610e-01
1.759870e-01
1.657720e-01
2.142120e-01
2.009160e-01
1.886300e-01
1.773520e-01
1.670840e-01
2.114280e-01
1.983240e-01
1.862450e-01
1.751920e-01
1.651650e-01
2.040320e-01
1.915150e-01
1.800070e-01
1.695060e-01
1.600140e-01
1.612270e-01
1.522230e-01
1.438420e-01
1.360830e-01
1.289470e-01
1.657720e-01
1.564840e-01
1.478490e-01
1.398680e-01
1.325400e-01
1.670840e-01
1.577470e-01
1.490820e-01
1.410880e-01
1.337670e-01
1.651650e-01
1.560140e-01
1.475400e-01
1.397440e-01
1.326250e-01
1.600140e-01
1.512830e-01
1.432230e-01
1.358340e-01
1.291160e-01
1.289470e-01
1.217010e-01
1.153660e-01
1.099400e-01
1.054250e-01
1.325400e-01
1.253860e-01
1.190700e-01
1.135920e-01
1.089530e-01
1.337670e-01
1.268110e-01
1.206090e-01
1.151590e-01
1.104610e-01
1.326250e-01
1.259770e-01
1.199810e-01
1.146380e-01
1.099480e-01
1.291160e-01
1.228830e-01
1.171880e-01
1.120320e-01
1.074140e-01
9.604590e-02
1.002450e-01
1.044820e-01
1.087570e-01
1.130690e-01
9.458900e-02
9.849160e-02
1.024790e-01
1.065500e-01
1.107060e-01
9.299440e-02
9.668050e-02
1.004590e-01
1.043290e-01
1.082920e-01
9.126190e-02
9.481180e-02
9.842260e-02
1.020940e-01
1.058260e-01
8.939170e-02
9.288560e-02
9.636990e-02
9.984470e-02
1.033100e-01
1.130690e-01
1.175400e-01
1.220480e-01
1.265920e-01
1.311730e-01
1.107060e-01
1.150480e-01
1.194760e-01
1.239920e-01
1.285940e-01
1.082920e-01
1.124680e-01
1.167760e-01
1.212150e-01
1.257850e-01
1.058260e-01
1.098030e-01
1.139480e-01
1.182630e-01
1.227480e-01
1.033100e-01
1.070500e-01
1.109920e-01
1.151360e-01
1.194810e-01
1.311730e-01
1.360680e-01
1.415970e-01
1.477590e-01
1.545560e-01
1.285940e-01
1.334710e-01
1.389200e-01
1.449420e-01
1.515370e-01
1.257850e-01
1.305980e-01
1.359250e-01
1.417660e-01
1.481210e-01
1.227480e-01
1.274520e-01
1.326130e-01
1.382320e-01
1.443090e-01
1.194810e-01
1.240300e-01
1.289830e-01
1.343400e-01
1.401020e-01
1.545560e-01
1.617200e-01
1.697920e-01
1.787740e-01
1.886630e-01
1.515370e-01
1.584520e-01
1.662220e-01
1.748470e-01
1.843260e-01
1.481210e-01
1.547480e-01
1.621720e-01
1.703950e-01
1.794160e-01
1.443090e-01
1.506070e-01
1.576430e-01
1.654180e-01
1.739320e-01
1.401020e-01
1.460300e-01
1.526340e-01
1.599150e-01
1.678730e-01
1.886630e-01
1.986690e-01
2.102460e-01
2.233960e-01
2.381190e-01
1.843260e-01
1.939220e-01
2.049660e-01
2.174590e-01
2.314010e-01
1.794160e-01
1.885180e-01
1.989550e-01
2.107270e-01
2.238340e-01
1.739320e-01
1.824570e-01
1.922130e-01
2.032010e-01
2.154190e-01
1.678730e-01
1.757390e-01
1.847410e-01
1.948790e-01
2.061550e-01
2.381190e-01
2.517160e-01
2.684750e-01
2.883960e-01
3.114780e-01
2.314010e-01
2.443850e-01
2.602760e-01
2.790730e-01
3.007750e-01
2.238340e-01
2.360220e-01
2.509040e-01
2.684820e-01
2.887540e-01
2.154190e-01
2.266250e-01
2.403600e-01
2.566230e-01
2.754140e-01
2.061550e-01
2.161960e-01
2.286430e-01
2.434970e-01
2.607570e-01
3.114780e-01
3.300960e-01
3.547530e-01
3.854500e-01
4.221870e-01
3.007750e-01
3.174970e-01
3.406730e-01
3.703020e-01
4.063860e-01
2.887540e-01
3.033580e-01
3.248330e-01
3.531780e-01
3.883930e-01
2.754140e-01
2.876810e-01
3.072350e-01
3.340770e-01
3.682070e-01
2.607570e-01
2.704640e-01
2.878780e-01
3.129990e-01
3.458280e-01
4.221870e-01
4.540650e-01
4.932730e-01
5.398090e-01
5.936730e-01
4.063860e-01
4.344650e-01
4.712280e-01
5.166750e-01
5.708070e-01
3.883930e-01
4.107980e-01
4.442370e-01
4.887110e-01
5.442190e-01
3.682070e-01
3.830640e-01
4.123010e-01
4.559150e-01
5.139090e-01
3.458280e-01
3.512650e-01
3.754190e-01
4.182890e-01
4.798760e-01
5.936730e-01
6.635970e-01
7.338910e-01
8.045550e-01
8.755890e-01
5.708070e-01
6.421350e-01
7.122910e-01
7.812750e-01
8.490860e-01
5.442190e-01
6.123640e-01
6.784640e-01
7.425200e-01
8.045320e-01
5.139090e-01
5.742830e-01
6.324110e-01
6.882910e-01
7.419250e-01
4.798760e-01
5.278930e-01
5.741300e-01
6.185880e-01
6.612670e-01
8.755890e-01
9.968440e-01
1.111130e+00
1.218460e+00
1.318820e+00
8.490860e-01
9.999680e-01
1.139400e+00
1.267380e+00
1.383910e+00
8.045320e-01
9.829000e-01
1.136920e+00
1.266600e+00
1.371930e+00
7.419250e-01
9.456400e-01
1.103700e+00
1.216120e+00
1.282880e+00
6.612670e-01
8.881890e-01
1.039750e+00
1.115940e+00
1.116760e+00
1.318820e+00
1.415610e+00
1.492280e+00
1.548820e+00
1.585250e+00
1.383910e+00
1.470850e+00
1.541860e+00
1.596940e+00
1.636100e+00
1.371930e+00
1.444230e+00
1.507240e+00
1.560940e+00
1.605350e+00
1.282880e+00
1.335770e+00
1.388410e+00
1.440830e+00
1.493000e+00
1.116760e+00
1.145440e+00
1.185380e+00
1.236590e+00
1.299060e+00
1.585250e+00
1.503570e+00
1.421020e+00
1.337620e+00
1.253350e+00
1.636100e+00
1.546430e+00
1.450700e+00
1.348900e+00
1.241040e+00
1.605350e+00
1.509170e+00
1.408370e+00
1.302960e+00
1.192920e+00
1.493000e+00
1.391790e+00
1.294050e+00
1.199790e+00
1.108990e+00
1.299060e+00
1.194300e+00
1.107740e+00
1.039390e+00
9.892390e-01
1.253350e+00
1.160520e+00
1.066840e+00
9.723090e-01
8.769250e-01
1.241040e+00
1.127880e+00
1.018910e+00
9.141470e-01
8.135770e-01
1.192920e+00
1.072620e+00
9.578100e-01
8.484970e-01
7.446820e-01
1.108990e+00
9.947370e-01
8.835270e-01
7.753620e-01
6.702390e-01
9.892390e-01
8.942340e-01
7.960670e-01
6.947390e-01
5.902490e-01
8.769250e-01
7.949600e-01
7.130560e-01
6.312120e-01
5.494300e-01
8.135770e-01
7.382840e-01
6.624600e-01
5.861030e-01
5.092140e-01
7.446820e-01
6.772390e-01
6.085430e-01
5.385940e-01
4.673920e-01
6.702390e-01
6.118240e-01
5.513060e-01
4.886850e-01
4.239610e-01
5.902490e-01
5.420390e-01
4.907480e-01
4.363770e-01
3.789240e-01
5.494300e-01
4.991620e-01
4.537660e-01
4.132410e-01
3.775880e-01
5.092140e-01
4.674910e-01
4.290710e-01
3.939540e-01
3.621400e-01
4.673920e-01
4.351120e-01
4.041560e-01
3.745240e-01
3.462150e-01
4.239610e-01
4.020250e-01
3.790220e-01
3.549510e-01
3.298140e-01
3.789240e-01
3.682300e-01
3.536680e-01
3.352360e-01
3.129350e-01
3.775880e-01
3.441310e-01
3.145690e-01
2.889000e-01
2.671260e-01
3.621400e-01
3.296350e-01
3.012450e-01
2.769720e-01
2.568140e-01
3.462150e-01
3.146270e-01
2.874230e-01
2.646020e-01
2.461650e-01
3.298140e-01
2.991080e-01
2.731000e-01
2.517910e-01
2.351790e-01
3.129350e-01
2.830780e-01
2.582790e-01
2.385380e-01
2.238570e-01
2.671260e-01
2.497430e-01
2.334330e-01
2.181960e-01
2.040320e-01
2.568140e-01
2.413560e-01
2.265120e-01
2.122830e-01
1.986690e-01
2.461650e-01
2.326290e-01
2.192540e-01
2.060390e-01
1.929840e-01
2.351790e-01
2.235620e-01
2.116560e-01
1.994620e-01
1.869790e-01
2.238570e-01
2.141560e-01
2.037210e-01
1.925530e-01
1.806520e-01
2.040320e-01
1.915150e-01
1.800070e-01
1.695060e-01
1.600140e-01
1.986690e-01
1.866140e-01
1.755730e-01
1.655460e-01
1.565330e-01
1.929840e-01
1.814200e-01
1.708720e-01
1.613400e-01
1.528240e-01
1.869790e-01
1.759350e-01
1.659050e-01
1.568880e-01
1.488860e-01
1.806520e-01
1.701580e-01
1.606710e-01
1.521910e-01
1.447190e-01
1.600140e-01
1.512830e-01
1.432230e-01
1.358340e-01
1.291160e-01
1.565330e-01
1.482170e-01
1.405230e-01
1.334510e-01
1.269990e-01
1.528240e-01
1.449390e-01
1.376220e-01
1.308730e-01
1.246930e-01
1.488860e-01
1.414470e-01
1.345190e-01
1.281020e-01
1.221950e-01
1.447190e-01
1.377430e-01
1.312150e-01
1.251370e-01
1.195070e-01
1.291160e-01
1.228830e-01
1.171880e-01
1.120320e-01
1.074140e-01
1.269990e-01
1.210190e-01
1.155500e-01
1.105910e-01
1.061420e-01
1.246930e-01
1.189610e-01
1.137200e-01
1.089680e-01
1.047050e-01
1.221950e-01
1.167080e-01
1.116980e-01
1.071630e-01
1.031040e-01
1.195070e-01
1.142610e-01
1.094840e-01
1.051770e-01
1.013400e-01
8.939170e-02
9.288560e-02
9.636990e-02
9.984470e-02
1.033100e-01
8.740010e-02
9.069480e-02
9.399930e-02
9.731380e-02
1.006380e-01
8.530680e-02
8.840150e-02
9.152600e-02
9.468060e-02
9.786500e-02
8.311190e-02
8.600570e-02
8.895010e-02
9.194510e-02
9.499060e-02
8.081530e-02
8.350760e-02
8.627160e-02
8.910730e-02
9.201490e-02
1.033100e-01
1.070500e-01
1.109920e-01
1.151360e-01
1.194810e-01
1.006380e-01
1.041810e-01
1.079340e-01