<?xml version="1.0"?>
<VTKFile type="UnstructuredGrid" version="0.1" byte_order="LittleEndian" compressor="vtkZLibDataCompressor">
<UnstructuredGrid>
<Piece NumberOfPoints="10000" NumberOfCells="6400">
<Points>
<DataArray type="Float32" NumberOfComponents="3" format="ascii">
-3.360000e+00 0.000000e+00 0.000000e+00
-3.276000e+00 0.000000e+00 0.000000e+00
-3.192000e+00 0.000000e+00 0.000000e+00
-3.108000e+00 0.000000e+00 0.000000e+00
-3.024000e+00 0.000000e+00 0.000000e+00
-3.360000e+00 6.412500e-02 0.000000e+00
-3.276000e+00 6.412500e-02 0.000000e+00
-3.192000e+00 6.412500e-02 0.000000e+00
-3.108000e+00 6.412500e-02 0.000000e+00
-3.024000e+00 6.412500e-02 0.000000e+00
-3.360000e+00 1.282500e-01 0.000000e+00
-3.276000e+00 1.282500e-01 0.000000e+00
-3.192000e+00 1.282500e-01 0.000000e+00
-3.108000e+00 1.282500e-01 0.000000e+00
-3.024000e+00 1.282500e-01 0.000000e+00
-3.360000e+00 1.923750e-01 0.000000e+00
-3.276000e+00 1.923750e-01 0.000000e+00
-3.192000e+00 1.923750e-01 0.000000e+00
-3.108000e+00 1.923750e-01 0.000000e+00
-3.024000e+00 1.923750e-01 0.000000e+00
-3.360000e+00 2.565000e-01 0.000000e+00
-3.276000e+00 2.565000e-01 0.000000e+00
-3.192000e+00 2.565000e-01 0.000000e+00
-3.108000e+00 2.565000e-01 0.000000e+00
-3.024000e+00 2.565000e-01 0.000000e+00
-3.024000e+00 0.000000e+00 0.000000e+00
-2.940000e+00 0.000000e+00 0.000000e+00
-2.856000e+00 0.000000e+00 0.000000e+00
-2.772000e+00 0.000000e+00 0.000000e+00
-2.688000e+00 0.000000e+00 0.000000e+00
-3.024000e+00 6.412500e-02 0.000000e+00
-2.940000e+00 6.412500e-02 0.000000e+00
-2.856000e+00 6.412500e-02 0.000000e+00
-2.772000e+00 6.412500e-02 0.000000e+00
-2.688000e+00 6.412500e-02 0.000000e+00
-3.024000e+00 1.282500e-01 0.000000e+00
-2.940000e+00 1.282500e-01 0.000000e+00
-2.856000e+00 1.282500e-01 0.000000e+00
-2.772000e+00 1.282500e-01 0.000000e+00
-2.688000e+00 1.282500e-01 0.000000e+00
-3.024000e+00 1.923750e-01 0.000000e+00
-2.940000e+00 1.923750e-01 0.000000e+00
-2.856000e+00 1.923750e-01 0.000000e+00
-2.772000e+00 1.923750e-01 0.000000e+00
-2.688000e+00 1.923750e-01 0.000000e+00
-3.024000e+00 2.565000e-01 0.000000e+00
-2.940000e+00 2.565000e-01 0.000000e+00
-2.856000e+00 2.565000e-01 0.000000e+00
-2.772000e+00 2.565000e-01 0.000000e+00
-2.688000e+00 2.565000e-01 0.000000e+00
-2.688000e+00 0.000000e+00 0.000000e+00
-2.604000e+00 0.000000e+00 0.000000e+00
-2.520000e+00 0.000000e+00 0.000000e+00
-2.436000e+00 0.000000e+00 0.000000e+00
-2.352000e+00 0.000000e+00 0.000000e+00
-2.688000e+00 6.412500e-02 0.000000e+00
-2.604000e+00 6.412500e-02 0.000000e+00
-2.520000e+00 6.412500e-02 0.000000e+00
-2.436000e+00 6.412500e-02 0.000000e+00
-2.352000e+00 6.412500e-02 0.000000e+00
-2.688000e+00 1.282500e-01 0.000000e+00
-2.604000e+00 1.282500e-01 0.000000e+00
-2.520000e+00 1.282500e-01 0.000000e+00
-2.436000e+00 1.282500e-01 0.000000e+00
-2.352000e+00 1.282500e-01 0.000000e+00
-2.688000e+00 1.923750e-01 0.000000e+00
-2.604000e+00 1.923750e-01 0.000000e+00
-2.520000e+00 1.923750e-01 0.000000e+00
-2.436000e+00 1.923750e-01 0.000000e+00
-2.352000e+00 1.923750e-01 0.000000e+00
-2.688000e+00 2.565000e-01 0.000000e+00
-2.604000e+00 2.565000e-01 0.000000e+00
-2.520000e+00 2.565000e-01 0.000000e+00
-2.436000e+00 2.565000e-01 0.000000e+00
-2.352000e+00 2.565000e-01 0.000000e+00
-2.352000e+00 0.000000e+00 0.000000e+00
-2.268000e+00 0.000000e+00 0.000000e+00
-2.184000e+00 0.000000e+00 0.000000e+00
-2.100000e+00 0.000000e+00 0.000000e+00
-2.016000e+00 0.000000e+00 0.000000e+00
-2.352000e+00 6.412500e-02 0.000000e+00
-2.268000e+00 6.412500e-02 0.000000e+00
-2.184000e+00 6.412500e-02 0.000000e+00
-2.100000e+00 6.412500e-02 0.000000e+00
-2.016000e+00 6.412500e-02 0.000000e+00
-2.352000e+00 1.282500e-01 0.000000e+00
-2.268000e+00 1.282500e-01 0.000000e+00
-2.184000e+00 1.282500e-01 0.000000e+00
-2.100000e+00 1.282500e-01 0.000000e+00
-2.016000e+00 1.282500e-01 0.000000e+00
-2.352000e+00 1.923750e-01 0.000000e+00
-2.268000e+00 1.923750e-01 0.000000e+00
-2.184000e+00 1.923750e-01 0.000000e+00
-2.100000e+00 1.923750e-01 0.000000e+00
-2.016000e+00 1.923750e-01 0.000000e+00
-2.352000e+00 2.565000e-01 0.000000e+00
-2.268000e+00 2.565000e-01 0.000000e+00
-2.184000e+00 2.565000e-01 0.000000e+00
-2.100000e+00 2.565000e-01 0.000000e+00
-2.016000e+00 2.565000e-01 0.000000e+00
-2.016000e+00 0.000000e+00 0.000000e+00
-1.932000e+00 0.000000e+00 0.000000e+00
-1.848000e+00 0.000000e+00 0.000000e+00
-1.764000e+00 0.000000e+00 0.000000e+00
-1.680000e+00 0.000000e+00 0.000000e+00
-2.016000e+00 6.412500e-02 0.000000e+00
-1.932000e+00 6.412500e-02 0.000000e+00
-1.848000e+00 6.412500e-02 0.000000e+00
-1.764000e+00 6.412500e-02 0.000000e+00
-1.680000e+00 6.412500e-02 0.000000e+00
-2.016000e+00 1.282500e-01 0.000000e+00
-1.932000e+00 1.282500e-01 0.000000e+00
-1.848000e+00 1.282500e-01 0.000000e+00
-1.764000e+00 1.282500e-01 0.000000e+00
-1.680000e+00 1.282500e-01 0.000000e+00
-2.016000e+00 1.923750e-01 0.000000e+00
-1.932000e+00 1.923750e-01 0.000000e+00
-1.848000e+00 1.923750e-01 0.000000e+00
-1.764000e+00 1.923750e-01 0.000000e+00
-1.680000e+00 1.923750e-01 0.000000e+00
-2.016000e+00 2.565000e-01 0.000000e+00
-1.932000e+00 2.565000e-01 0.000000e+00
-1.848000e+00 2.565000e-01 0.000000e+00
-1.764000e+00 2.565000e-01 0.000000e+00
-1.680000e+00 2.565000e-01 0.000000e+00
-1.680000e+00 0.000000e+00 0.000000e+00
-1.596000e+00 0.000000e+00 0.000000e+00
-1.512000e+00 0.000000e+00 0.000000e+00
-1.428000e+00 0.000000e+00 0.000000e+00
-1.344000e+00 0.000000e+00 0.000000e+00
-1.680000e+00 6.412500e-02 0.000000e+00
-1.596000e+00 6.412500e-02 0.000000e+00
-1.512000e+00 6.412500e-02 0.000000e+00
-1.428000e+00 6.412500e-02 0.000000e+00
-1.344000e+00 6.412500e-02 0.000000e+00
-1.680000e+00 1.282500e-01 0.000000e+00
-1.596000e+00 1.282500e-01 0.000000e+00
-1.512000e+00 1.282500e-01 0.000000e+00
-1.428000e+00 1.282500e-01 0.000000e+00
-1.344000e+00 1.282500e-01 0.000000e+00
-1.680000e+00 1.923750e-01 0.000000e+00
-1.596000e+00 1.923750e-01 0.000000e+00
-1.512000e+00 1.923750e-01 0.000000e+00
-1.428000e+00 1.923750e-01 0.000000e+00
-1.344000e+00 1.923750e-01 0.000000e+00
-1.680000e+00 2.565000e-01 0.000000e+00
-1.596000e+00 2.565000e-01 0.000000e+00
-1.512000e+00 2.565000e-01 0.000000e+00
-1.428000e+00 2.565000e-01 0.000000e+00
-1.344000e+00 2.565000e-01 0.000000e+00
-1.344000e+00 0.000000e+00 0.000000e+00
-1.260000e+00 0.000000e+00 0.000000e+00
-1.176000e+00 0.000000e+00 0.000000e+00
-1.092000e+00 0.000000e+00 0.000000e+00
-1.008000e+00 0.000000e+00 0.000000e+00
-1.344000e+00 6.412500e-02 0.000000e+00
-1.260000e+00 6.412500e-02 0.000000e+00
-1.176000e+00 6.412500e-02 0.000000e+00
-1.092000e+00 6.412500e-02 0.000000e+00
-1.008000e+00 6.412500e-02 0.000000e+00
-1.344000e+00 1.282500e-01 0.000000e+00
-1.260000e+00 1.282500e-01 0.000000e+00
-1.176000e+00 1.282500e-01 0.000000e+00
-1.092000e+00 1.282500e-01 0.000000e+00
-1.008000e+00 1.282500e-01 0.000000e+00
-1.344000e+00 1.923750e-01 0.000000e+00
-1.260000e+00 1.923750e-01 0.000000e+00
-1.176000e+00 1.923750e-01 0.000000e+00
-1.092000e+00 1.923750e-01 0.000000e+00
-1.008000e+00 1.923750e-01 0.000000e+00
-1.344000e+00 2.565000e-01 0.000000e+00
-1.260000e+00 2.565000e-01 0.000000e+00
-1.176000e+00 2.565000e-01 0.000000e+00
-1.092000e+00 2.565000e-01 0.000000e+00
-1.008000e+00 2.565000e-01 0.000000e+00
-1.008000e+00 0.000000e+00 0.000000e+00
-9.240000e-01 0.000000e+00 0.000000e+00
-8.400000e-01 0.000000e+00 0.000000e+00
-7.560000e-01 0.000000e+00 0.000000e+00
-6.720000e-01 0.000000e+00 0.000000e+00
-1.008000e+00 6.412500e-02 0.000000e+00
-9.240000e-01 6.412500e-02 0.000000e+00
-8.400000e-01 6.412500e-02 0.000000e+00
-7.560000e-01 6.412500e-02 0.000000e+00
-6.720000e-01 6.412500e-02 0.000000e+00
-1.008000e+00 1.282500e-01 0.000000e+00
-9.240000e-01 1.282500e-01 0.000000e+00
-8.400000e-01 1.282500e-01 0.000000e+00
-7.560000e-01 1.282500e-01 0.000000e+00
-6.720000e-01 1.282500e-01 0.000000e+00
-1.008000e+00 1.923750e-01 0.000000e+00
-9.240000e-01 1.923750e-01 0.000000e+00
-8.400000e-01 1.923750e-01 0.000000e+00
-7.560000e-01 1.923750e-01 0.000000e+00
-6.720000e-01 1.923750e-01 0.000000e+00
-1.008000e+00 2.565000e-01 0.000000e+00
-9.240000e-01 2.565000e-01 0.000000e+00
-8.400000e-01 2.565000e-01 0.000000e+00
-7.560000e-01 2.565000e-01 0.000000e+00
-6.720000e-01 2.565000e-01 0.000000e+00
-6.720000e-01 0.000000e+00 0.000000e+00
-5.880000e-01 0.000000e+00 0.000000e+00
-5.040000e-01 0.000000e+00 0.000000e+00
-4.200000e-01 0.000000e+00 0.000000e+00
-3.360000e-01 0.000000e+00 0.000000e+00
-6.720000e-01 6.412500e-02 0.000000e+00
-5.880000e-01 6.412500e-02 0.000000e+00
-5.040000e-01 6.412500e-02 0.000000e+00
-4.200000e-01 6.412500e-02 0.000000e+00
-3.360000e-01 6.412500e-02 0.000000e+00
-6.720000e-01 1.282500e-01 0.000000e+00
-5.880000e-01 1.282500e-01 0.000000e+00
-5.040000e-01 1.282500e-01 0.000000e+00
-4.200000e-01 1.282500e-01 0.000000e+00
-3.360000e-01 1.282500e-01 0.000000e+00
-6.720000e-01 1.923750e-01 0.000000e+00
-5.880000e-01 1.923750e-01 0.000000e+00
-5.040000e-01 1.923750e-01 0.000000e+00
-4.200000e-01 1.923750e-01 0.000000e+00
-3.360000e-01 1.923750e-01 0.000000e+00
-6.720000e-01 2.565000e-01 0.000000e+00
-5.880000e-01 2.565000e-01 0.000000e+00
-5.040000e-01 2.565000e-01 0.000000e+00
-4.200000e-01 2.565000e-01 0.000000e+00
-3.360000e-01 2.565000e-01 0.000000e+00
-3.360000e-01 0.000000e+00 0.000000e+00
-2.520000e-01 0.000000e+00 0.000000e+00
-1.680000e-01 0.000000e+00 0.000000e+00
-8.400000e-02 0.000000e+00 0.000000e+00
-4.440890e-16 0.000000e+00 0.000000e+00
-3.360000e-01 6.412500e-02 0.000000e+00
-2.520000e-01 6.412500e-02 0.000000e+00
-1.680000e-01 6.412500e-02 0.000000e+00
-8.400000e-02 6.412500e-02 0.000000e+00
-4.440890e-16 6.412500e-02 0.000000e+00
-3.360000e-01 1.282500e-01 0.000000e+00
-2.520000e-01 1.282500e-01 0.000000e+00
-1.680000e-01 1.282500e-01 0.000000e+00
-8.400000e-02 1.282500e-01 0.000000e+00
-4.440890e-16 1.282500e-01 0.000000e+00
-3.360000e-01 1.923750e-01 0.000000e+00
-2.520000e-01 1.923750e-01 0.000000e+00
-1.680000e-01 1.923750e-01 0.000000e+00
[...]
<PointData>
<DataArray type="Float32" Name="V1" format="ascii">
0.000000e+00
0.000000e+00
0.000000e+00
0.000000e+00
0.000000e+00
6.347820e-02
5.964150e-02
5.535160e-02
5.060840e-02
4.541200e-02
1.013490e-01
9.774400e-02
9.291850e-02
8.687230e-02
7.960530e-02
1.136110e-01
1.143070e-01
1.127010e-01
1.087920e-01
1.025800e-01
1.002660e-01
1.093320e-01
1.146980e-01
1.163660e-01
1.143360e-01
0.000000e+00
0.000000e+00
0.000000e+00
0.000000e+00
0.000000e+00
4.541200e-02
3.981840e-02
3.566730e-02
3.295870e-02
3.169260e-02
7.960530e-02
7.151220e-02
6.537010e-02
6.117890e-02
5.893870e-02
1.025800e-01
9.508130e-02
8.910820e-02
8.466050e-02
8.173820e-02
1.143360e-01
1.105260e-01
1.068820e-01
1.034040e-01
1.000910e-01
0.000000e+00
0.000000e+00
0.000000e+00
0.000000e+00
0.000000e+00
3.169260e-02
3.065280e-02
2.990360e-02
2.944510e-02
2.927730e-02
5.893870e-02
5.719940e-02
5.600680e-02
5.536070e-02
5.526130e-02
8.173820e-02
7.963990e-02
7.830940e-02
7.774680e-02
7.795200e-02
1.000910e-01
9.797420e-02
9.681160e-02
9.660330e-02
9.734930e-02
0.000000e+00
0.000000e+00
0.000000e+00
0.000000e+00
0.000000e+00
2.927730e-02
2.924000e-02
2.951300e-02
3.009630e-02
3.098980e-02
5.526130e-02
5.541170e-02
5.607600e-02
5.725420e-02
5.894630e-02
7.795200e-02
7.851490e-02
7.968880e-02
8.147370e-02
8.386950e-02
9.734930e-02
9.854980e-02
1.003520e-01
1.027550e-01
1.057600e-01
0.000000e+00
0.000000e+00
0.000000e+00
0.000000e+00
0.000000e+00
3.098980e-02
3.206280e-02
3.338910e-02
3.496840e-02
3.680090e-02
5.894630e-02
6.096790e-02
6.344420e-02
6.637510e-02
6.976060e-02
8.386950e-02
8.671520e-02
9.016540e-02
9.422000e-02
9.887910e-02
1.057600e-01
1.093050e-01
1.135530e-01
1.185030e-01
1.241560e-01
0.000000e+00
0.000000e+00
0.000000e+00
0.000000e+00
0.000000e+00
3.680090e-02
3.886930e-02
4.137650e-02
4.432240e-02
4.770720e-02
6.976060e-02
7.355990e-02
7.810510e-02
8.339630e-02
8.943330e-02
9.887910e-02
1.040720e-01
1.101860e-01
1.172210e-01
1.251780e-01
1.241560e-01
1.304050e-01
1.376190e-01
1.457980e-01
1.549430e-01
0.000000e+00
0.000000e+00
0.000000e+00
0.000000e+00
0.000000e+00
4.770720e-02
5.137310e-02
5.579730e-02
6.097960e-02
6.692010e-02
8.943330e-02
9.595070e-02
1.037340e-01
1.127830e-01
1.230980e-01
1.251780e-01
1.337330e-01
1.438100e-01
1.554100e-01
1.685320e-01
1.549430e-01
1.647190e-01
1.760250e-01
1.888600e-01
2.032240e-01
0.000000e+00
0.000000e+00
0.000000e+00
0.000000e+00
0.000000e+00
6.692010e-02
7.301770e-02
8.048410e-02
8.931910e-02
9.952290e-02
1.230980e-01
1.336730e-01
1.464780e-01
1.615130e-01
1.787780e-01
1.685320e-01
1.819660e-01
1.979830e-01
2.165830e-01
2.377660e-01
2.032240e-01
2.178960e-01
2.349980e-01
2.545280e-01
2.764870e-01
0.000000e+00
0.000000e+00
0.000000e+00
0.000000e+00
0.000000e+00
9.952290e-02
1.095730e-01
1.216190e-01
1.356590e-01
1.516940e-01
1.787780e-01
1.958460e-01
2.160900e-01
2.395110e-01
2.661080e-01
2.377660e-01
2.588180e-01
2.834150e-01
3.115570e-01
3.432440e-01
2.764870e-01
2.984890e-01
3.235930e-01
3.517970e-01
3.831020e-01
0.000000e+00
0.000000e+00
0.000000e+00
0.000000e+00
0.000000e+00
1.516940e-01
1.685120e-01
1.865070e-01
2.056780e-01
2.260270e-01
2.661080e-01
2.942210e-01
3.242140e-01
3.560880e-01
3.898410e-01
3.432440e-01
3.771290e-01
4.131230e-01
4.512270e-01
4.914410e-01
3.831020e-01
4.172350e-01
4.532340e-01
4.910980e-01
5.308270e-01
0.000000e+00
0.000000e+00
0.000000e+00
0.000000e+00
0.000000e+00
2.260270e-01
2.509390e-01
2.732360e-01
2.929180e-01
3.099860e-01
3.898410e-01
4.313560e-01
4.690960e-01
5.030610e-01
5.332520e-01
4.914410e-01
5.412490e-01
5.875790e-01
6.304280e-01
6.697990e-01
5.308270e-01
5.806210e-01
6.286850e-01
6.750200e-01
7.196260e-01
0.000000e+00
0.000000e+00
0.000000e+00
0.000000e+00
0.000000e+00
3.099860e-01
3.304090e-01
3.439590e-01
3.506360e-01
3.504390e-01
5.332520e-01
5.694840e-01
5.954460e-01
6.111380e-01
6.165590e-01
6.697990e-01
7.172260e-01
7.544620e-01
7.815070e-01
7.983610e-01
7.196260e-01
7.736330e-01
8.210060e-01
8.617430e-01
8.958450e-01
0.000000e+00
0.000000e+00
0.000000e+00
0.000000e+00
0.000000e+00
3.504390e-01
3.368680e-01
3.175770e-01
2.925660e-01
2.618350e-01
6.165590e-01
6.013170e-01
5.760730e-01
5.408270e-01
4.955790e-01
7.983610e-01
7.933470e-01
7.754880e-01
7.447820e-01
7.012300e-01
8.958450e-01
9.129580e-01
9.158210e-01
9.044310e-01
8.787910e-01
0.000000e+00
0.000000e+00
0.000000e+00
0.000000e+00
0.000000e+00
2.618350e-01
2.180560e-01
1.779710e-01
1.415800e-01
1.088830e-01
4.955790e-01
4.254320e-01
3.579610e-01
2.931640e-01
2.310420e-01
7.012300e-01
6.221280e-01
5.399690e-01
4.547520e-01
3.664790e-01
8.787910e-01
8.081430e-01
7.239940e-01
6.263440e-01
5.151920e-01
0.000000e+00
0.000000e+00
0.000000e+00
0.000000e+00
0.000000e+00
1.088830e-01
8.498300e-02
6.158790e-02
3.869730e-02
1.631140e-02
2.310420e-01
1.824980e-01
1.360230e-01
9.161860e-02
4.928390e-02
3.664790e-01
2.925440e-01
2.233060e-01
1.587640e-01
9.891740e-02
5.151920e-01
4.151230e-01
3.234370e-01
2.401330e-01
1.652120e-01
0.000000e+00
0.000000e+00
0.000000e+00
0.000000e+00
0.000000e+00
1.631140e-02
1.988140e-03
-7.755730e-03
-1.292020e-02
-1.350520e-02
4.928390e-02
2.232980e-02
3.831150e-03
-6.212100e-03
-7.799920e-03
9.891740e-02
6.102500e-02
3.476070e-02
2.012430e-02
1.711590e-02
1.652120e-01
1.180740e-01
8.503280e-02
6.608890e-02
6.124220e-02
0.000000e+00
0.000000e+00
0.000000e+00
0.000000e+00
0.000000e+00
-1.350520e-02
-1.466910e-02
-1.295910e-02
-8.374920e-03
-9.167690e-04
-7.799920e-03
-1.017940e-02
-7.783670e-03
-6.128660e-04
1.133310e-02
1.711590e-02
1.346940e-02
1.552610e-02
2.328620e-02
3.674950e-02
6.124220e-02
5.627700e-02
5.697040e-02
6.332220e-02
7.533250e-02
0.000000e+00
0.000000e+00
0.000000e+00
0.000000e+00
0.000000e+00
-9.167690e-04
3.812360e-03
7.813250e-03
1.108590e-02
1.363030e-02
1.133310e-02
1.889540e-02
2.511070e-02
2.997900e-02
3.350020e-02
3.674950e-02
4.524920e-02
5.189250e-02
5.667930e-02
5.960960e-02
7.533250e-02
8.287370e-02
8.815850e-02
9.118670e-02
9.195860e-02
0.000000e+00
0.000000e+00
0.000000e+00
0.000000e+00
0.000000e+00
1.363030e-02
1.602240e-02
1.759860e-02
1.835890e-02
1.830330e-02
3.350020e-02
3.683720e-02
3.889370e-02
3.966970e-02
3.916520e-02
5.960960e-02
6.244440e-02
6.388530e-02
6.393240e-02
6.258550e-02
9.195860e-02
9.284410e-02
9.257350e-02
9.114700e-02
8.856440e-02
0.000000e+00
0.000000e+00
0.000000e+00
0.000000e+00
0.000000e+00
1.830330e-02
1.891360e-02
1.828270e-02
1.641070e-02
1.329770e-02
3.916520e-02
3.949070e-02
3.812260e-02
3.506100e-02
3.030570e-02
6.258550e-02
6.173140e-02
5.951980e-02
5.595070e-02
5.102410e-02
8.856440e-02
8.563570e-02
8.247420e-02
7.907990e-02
7.545280e-02
1.002660e-01
1.093320e-01
1.146980e-01
1.163660e-01
1.143360e-01
9.945850e-02
1.077180e-01
1.136230e-01
1.171750e-01
1.183730e-01
9.848610e-02
1.057600e-01
1.117230e-01
1.163750e-01
1.197180e-01
9.734850e-02
1.034580e-01
1.089980e-01
1.139690e-01
1.183710e-01
9.604590e-02
1.008120e-01
1.054480e-01
1.099540e-01
1.143320e-01
1.143360e-01
1.105260e-01
1.068820e-01
1.034040e-01
1.000910e-01
1.183730e-01
1.173590e-01
1.159160e-01
1.140450e-01
1.117440e-01
1.197180e-01
1.208390e-01
1.211500e-01
1.206520e-01
1.193440e-01
1.183710e-01
1.209650e-01
1.225840e-01
1.232250e-01
1.228890e-01
1.143320e-01
1.177390e-01
1.202160e-01
1.217640e-01
1.223820e-01
1.000910e-01
9.797420e-02
9.681160e-02
9.660330e-02
9.734930e-02
1.117440e-01
1.101340e-01
1.093980e-01
1.095350e-01
1.105460e-01
1.193440e-01
1.183260e-01
1.180590e-01
1.185410e-01
1.197730e-01
1.228890e-01
1.225500e-01
1.227930e-01
1.236210e-01
1.250320e-01
1.223820e-01
1.228050e-01
1.236030e-01
1.247750e-01
1.263220e-01
9.734930e-02
9.854980e-02
1.003520e-01
1.027550e-01
1.057600e-01
1.105460e-01
1.120970e-01
1.142510e-01
1.170110e-01
1.203740e-01
1.197730e-01
1.215830e-01
1.239810e-01
1.269690e-01
1.305460e-01
1.250320e-01
1.270090e-01
1.295420e-01
1.326310e-01
1.362770e-01
1.263220e-01
1.283740e-01
1.309320e-01
1.339960e-01
1.375650e-01
1.057600e-01
1.093050e-01
1.135530e-01
1.185030e-01
1.241560e-01
1.203740e-01
1.242600e-01
1.288600e-01
1.341750e-01
1.402050e-01
1.305460e-01
1.346200e-01
1.393980e-01
1.448800e-01
1.510650e-01
1.362770e-01
1.403860e-01
1.451660e-01
1.506160e-01
1.567370e-01
1.375650e-01
1.415570e-01
1.461630e-01
1.513840e-01
1.572190e-01
1.241560e-01
1.304050e-01
1.376190e-01
1.457980e-01
1.549430e-01
1.402050e-01
1.468180e-01
1.543770e-01
1.628840e-01
1.723390e-01
1.510650e-01
1.578050e-01
1.654580e-01
1.740230e-01
1.835000e-01
1.567370e-01
1.633680e-01
1.708600e-01
1.792130e-01
1.884270e-01
1.572190e-01
1.635050e-01
1.705840e-01
1.784550e-01
1.871190e-01
1.549430e-01
1.647190e-01
1.760250e-01
1.888600e-01
2.032240e-01
1.723390e-01
1.823260e-01
1.937930e-01
2.067400e-01
2.211670e-01
1.835000e-01
1.934220e-01
2.047600e-01
2.175140e-01
2.316850e-01
1.884270e-01
1.980080e-01
2.089270e-01
2.211830e-01
2.347770e-01
1.871190e-01
1.960840e-01
2.062930e-01
2.177470e-01
2.304440e-01
2.032240e-01
2.178960e-01
2.349980e-01
2.545280e-01
2.764870e-01
2.211670e-01
2.356690e-01
2.525710e-01
2.718740e-01
2.935780e-01
2.316850e-01
2.457330e-01
2.621500e-01
2.809370e-01
3.020920e-01
2.347770e-01
2.480890e-01
2.637340e-01
2.817140e-01
3.020290e-01
2.304440e-01
2.427360e-01
2.573240e-01
2.742080e-01
2.933880e-01
2.764870e-01
2.984890e-01
3.235930e-01
3.517970e-01
3.831020e-01
2.935780e-01
3.148810e-01
3.394490e-01
3.672850e-01
3.983860e-01
3.020920e-01
3.223940e-01
3.461530e-01
3.733680e-01
4.040400e-01
3.020290e-01
3.210300e-01
3.437020e-01
3.700470e-01
4.000620e-01
2.933880e-01
3.107870e-01
3.320980e-01
3.573200e-01
3.864540e-01
3.831020e-01
4.172350e-01
4.532340e-01
4.910980e-01
5.308270e-01
3.983860e-01
4.317770e-01
4.675870e-01
5.058170e-01
5.464660e-01
4.040400e-01
4.363760e-01
4.716560e-01
5.098810e-01
5.510500e-01
4.000620e-01
4.310330e-01
4.654420e-01
5.032910e-01
5.445800e-01
3.864540e-01
4.157460e-01
4.489440e-01
4.860470e-01
5.270550e-01
5.308270e-01
5.806210e-01
6.286850e-01
6.750200e-01
7.196260e-01
5.464660e-01
5.983500e-01
6.488410e-01
6.979390e-01
7.456440e-01
5.510500e-01
6.044320e-01
6.567360e-01
7.079630e-01
7.581130e-01
5.445800e-01
5.988670e-01
6.523710e-01
7.050930e-01
7.570310e-01
5.270550e-01
5.816550e-01
6.357460e-01
6.893270e-01
7.424000e-01
7.196260e-01
7.736330e-01
8.210060e-01
8.617430e-01
8.958450e-01
7.456440e-01
8.070500e-01
8.615530e-01
9.091510e-01
9.498460e-01
7.581130e-01
8.261370e-01
8.870140e-01
9.407450e-01
9.873300e-01
7.570310e-01
8.308920e-01
8.973900e-01
9.565250e-01
1.008300e+00
7.424000e-01
8.213170e-01
8.926800e-01
9.564900e-01
1.012750e+00
8.958450e-01
9.129580e-01
9.158210e-01
9.044310e-01
8.787910e-01
9.498460e-01
9.773900e-01
9.922170e-01
9.943250e-01
9.837170e-01
9.873300e-01
1.023200e+00
1.047640e+00
1.060640e+00
1.062220e+00
1.008300e+00
1.050390e+00
1.082080e+00
1.103380e+00
1.114290e+00
1.012750e+00
1.058950e+00
1.095550e+00
1.122550e+00
1.139940e+00
8.787910e-01
8.081430e-01
7.239940e-01
6.263440e-01
5.151920e-01
9.837170e-01
9.317500e-01
8.622470e-01
7.752080e-01
6.706320e-01
1.062220e+00
1.024170e+00
9.676960e-01
8.928100e-01
7.995050e-01
1.114290e+00
1.085390e+00
1.040340e+00
9.791500e-01
9.018120e-01
1.139940e+00
1.115420e+00
1.080190e+00
1.034230e+00
9.775520e-01
5.151920e-01
4.151230e-01
3.234370e-01
2.401330e-01
1.652120e-01
6.706320e-01
5.537770e-01
4.442530e-01
3.420580e-01
2.471930e-01
7.995050e-01
6.778460e-01
5.597380e-01
4.451810e-01
3.341740e-01
9.018120e-01
7.873300e-01
6.698930e-01
5.495020e-01
4.261560e-01
9.775520e-01
8.822280e-01
7.747170e-01
6.550210e-01
5.231380e-01
1.652120e-01
1.180740e-01
8.503280e-02
6.608890e-02
6.124220e-02
2.471930e-01
1.898010e-01
1.475710e-01
1.205030e-01
1.085980e-01
3.341740e-01
2.659870e-01
2.138950e-01
1.778990e-01
1.579970e-01
4.261560e-01
3.466330e-01
2.840060e-01
2.382740e-01
2.094380e-01
5.231380e-01
4.317390e-01
3.579030e-01
3.016300e-01
2.629210e-01
6.124220e-02
5.627700e-02
5.697040e-02
6.332220e-02
7.533250e-02
1.085980e-01
9.759310e-02
9.387410e-02
9.744140e-02
1.082950e-01
1.579970e-01
1.399220e-01
1.306650e-01
1.302260e-01
1.386050e-01
2.094380e-01
1.832640e-01
1.673430e-01
1.616760e-01
1.662620e-01
2.629210e-01
2.276190e-01
2.039090e-01
1.917910e-01
1.912670e-01
7.533250e-02
8.287370e-02
8.815850e-02
9.118670e-02
9.195860e-02
1.082950e-01
1.150070e-01
1.189460e-01
1.201120e-01
1.185040e-01
1.386050e-01
1.438630e-01
1.460360e-01
1.451220e-01
1.411210e-01
1.662620e-01
1.694430e-01
1.694280e-01
1.662170e-01
1.598100e-01
1.912670e-01
1.917460e-01
1.891230e-01
1.833980e-01
1.745710e-01
9.195860e-02
9.284410e-02
9.257350e-02
9.114700e-02
8.856440e-02
1.185040e-01
1.174740e-01
1.154880e-01
1.125470e-01
1.086510e-01
1.411210e-01
1.381200e-01
1.344360e-01
1.300710e-01
1.250240e-01
1.598100e-01
1.547820e-01
1.494190e-01
1.437190e-01
1.376840e-01
1.745710e-01
1.674620e-01
1.604350e-01
1.534910e-01
1.466300e-01
8.856440e-02
8.563570e-02
8.247420e-02
7.907990e-02
7.545280e-02
1.086510e-01
1.046770e-01
1.006660e-01
9.661820e-02
9.253360e-02
1.250240e-01
1.201230e-01
1.153670e-01
1.107580e-01
1.062940e-01
1.376840e-01
1.319730e-01
1.265770e-01
1.214980e-01
1.167340e-01
1.466300e-01
1.402270e-01
1.342970e-01
1.288390e-01
1.238540e-01
9.604590e-02
1.008120e-01
1.054480e-01
1.099540e-01
1.143320e-01
9.458900e-02
9.883090e-02
1.029940e-01
1.070770e-01
1.110820e-01
9.299440e-02
9.685510e-02
1.006240e-01
1.043010e-01
1.078850e-01
9.126190e-02
9.488410e-02
9.833840e-02
1.016250e-01
1.047430e-01
8.939170e-02
9.291800e-02
9.613740e-02
9.904990e-02
1.016560e-01
1.143320e-01
1.177390e-01
1.202160e-01
1.217640e-01
1.223820e-01
1.110820e-01
1.144500e-01
1.171030e-01
1.190390e-01
1.202600e-01
1.078850e-01
1.110850e-01
1.137690e-01
1.159380e-01
1.175930e-01
1.047430e-01
1.076420e-01
1.102140e-01
1.124600e-01
1.143790e-01
1.016560e-01
1.041230e-01
1.064400e-01
1.086050e-01
1.106180e-01
1.223820e-01
1.228050e-01
1.236030e-01
1.247750e-01
1.263220e-01
1.202600e-01
1.212310e-01
1.224560e-01
1.239360e-01
1.256710e-01
1.175930e-01
1.189930e-01
1.205580e-01
1.222870e-01
1.241810e-01
1.143790e-01
1.160910e-01
1.179080e-01
1.198280e-01
1.218520e-01
1.106180e-01
1.125250e-01
1.145050e-01
1.165580e-01
1.186830e-01
1.263220e-01
1.283740e-01
1.309320e-01
1.339960e-01
1.375650e-01
1.256710e-01
1.278140e-01
1.304110e-01
1.334630e-01
1.369690e-01
1.241810e-01
1.263990e-01
1.290230e-01
1.320510e-01
1.354840e-01
1.218520e-01
1.241310e-01
1.267670e-01
1.297610e-01
1.331110e-01
1.186830e-01
1.210080e-01
1.236440e-01
1.265910e-01
1.298500e-01
1.375650e-01
1.415570e-01
1.461630e-01
1.513840e-01
1.572190e-01
1.369690e-01
1.408590e-01
1.453220e-01
1.503560e-01
1.559630e-01
1.354840e-01
1.392630e-01
1.435720e-01
1.484100e-01
1.537780e-01
1.331110e-01
1.367690e-01
1.409130e-01
1.455450e-01
1.506650e-01
1.298500e-01
1.333760e-01
1.373470e-01
1.417620e-01
1.466220e-01
1.572190e-01
1.635050e-01
1.705840e-01
1.784550e-01
1.871190e-01
1.559630e-01
1.619660e-01
1.687210e-01
1.762280e-01
1.844870e-01
1.537780e-01
1.594870e-01
1.659050e-01
1.730320e-01
1.808690e-01
1.506650e-01
1.560680e-01
1.621370e-01
1.688700e-01
1.762670e-01
1.466220e-01
1.517100e-01
1.574160e-01
1.637390e-01
1.706800e-01
1.871190e-01
1.960840e-01
2.062930e-01
2.177470e-01
2.304440e-01
1.844870e-01
1.929890e-01
2.026840e-01
2.135690e-01
2.256460e-01
1.808690e-01
1.888870e-01
1.980350e-01
2.083150e-01
2.197260e-01
1.762670e-01
1.837760e-01
1.923480e-01
2.019830e-01
2.126830e-01
1.706800e-01
1.776560e-01
1.856210e-01
1.945750e-01
2.045170e-01
2.304440e-01
2.427360e-01
2.573240e-01
2.742080e-01
2.933880e-01
2.256460e-01
2.372140e-01
2.510630e-01
2.671930e-01
2.856030e-01
2.197260e-01
2.305260e-01
2.435530e-01
2.588070e-01
2.762890e-01
2.126830e-01
2.226700e-01
2.347930e-01
2.490520e-01
2.654460e-01
2.045170e-01
2.136480e-01
2.247840e-01
2.379260e-01
2.530720e-01
2.933880e-01
3.107870e-01
3.320980e-01
3.573200e-01
3.864540e-01
2.856030e-01
3.016140e-01
3.218740e-01
3.463840e-01
3.751440e-01
2.762890e-01
2.907820e-01
3.097800e-01
3.332820e-01
3.612880e-01
2.654460e-01
2.782930e-01
2.958150e-01
3.180130e-01
3.448860e-01
2.530720e-01
2.641440e-01
2.799800e-01
3.005780e-01
3.259390e-01
3.864540e-01
4.157460e-01
4.489440e-01
4.860470e-01
5.270550e-01
3.751440e-01
4.027030e-01
4.345940e-01
4.708180e-01
5.113740e-01
3.612880e-01
3.862660e-01
4.161440e-01
4.509200e-01
4.905960e-01
3.448860e-01
3.664370e-01
3.935930e-01
4.263550e-01
4.647220e-01
3.259390e-01
3.432150e-01
3.669420e-01
3.971210e-01
4.337510e-01
5.270550e-01
5.816550e-01
6.357460e-01
6.893270e-01
7.424000e-01
5.113740e-01
5.660730e-01
6.200990e-01
6.734520e-01
7.261310e-01
4.905960e-01
5.443010e-01
5.967140e-01
6.478330e-01
6.976610e-01
4.647220e-01
5.163390e-01
5.655890e-01
6.124720e-01
6.569880e-01
4.337510e-01
4.821860e-01
5.267250e-01
5.673670e-01
6.041130e-01
7.424000e-01
8.213170e-01
8.926800e-01
9.564900e-01
1.012750e+00
7.261310e-01
8.096260e-01
8.846660e-01
9.512500e-01
1.009380e+00
6.976610e-01
7.846510e-01
8.620510e-01
9.298610e-01
9.880820e-01
6.569880e-01
7.463890e-01
8.248350e-01
8.923260e-01
9.488610e-01
6.041130e-01
6.948430e-01
7.730190e-01
8.386430e-01
8.917120e-01
1.012750e+00
1.058950e+00
1.095550e+00
1.122550e+00
1.139940e+00
1.009380e+00
1.059940e+00
1.101360e+00
1.133640e+00
1.156770e+00
9.880820e-01
1.041780e+00
1.086930e+00
1.123530e+00
1.151570e+00
9.488610e-01
1.004470e+00
1.052260e+00
1.092210e+00
1.124330e+00
8.917120e-01
9.480140e-01
9.973400e-01
1.039690e+00
1.075070e+00
1.139940e+00
1.115420e+00
1.080190e+00
1.034230e+00
9.775520e-01
1.156770e+00
1.133910e+00
1.102550e+00
1.062670e+00
1.014290e+00
1.151570e+00
1.129940e+00
1.102430e+00
1.069020e+00
1.029740e+00
1.124330e+00
1.103510e+00
1.079830e+00
1.053290e+00
1.023900e+00
1.075070e+00
1.054620e+00
1.034750e+00
1.015470e+00
9.967670e-01
9.775520e-01
8.822280e-01
7.747170e-01
6.550210e-01
5.231380e-01
1.014290e+00
9.338860e-01
8.388690e-01
7.292360e-01
6.049870e-01
1.029740e+00
9.621490e-01
8.791760e-01
7.808180e-01
6.670740e-01
1.023900e+00
9.670140e-01
8.956380e-01
8.097670e-01
7.094000e-01
9.967670e-01
9.484830e-01
8.882550e-01
8.160820e-01
7.319650e-01
5.231380e-01
4.317390e-01
3.579030e-01
3.016300e-01
2.629210e-01
6.049870e-01
5.089640e-01
4.288000e-01
3.644940e-01
3.160480e-01
6.670740e-01
5.715630e-01
4.890430e-01
4.195140e-01
3.629750e-01
7.094000e-01
6.195370e-01
5.386330e-01
4.666880e-01
4.037030e-01
7.319650e-01
6.528840e-01
5.775690e-01
5.060180e-01
4.382310e-01
2.629210e-01
2.276190e-01
2.039090e-01
1.917910e-01
1.912670e-01
3.160480e-01
2.740540e-01
2.433500e-01
2.239380e-01
2.158160e-01
3.629750e-01
3.156640e-01
2.790020e-01
2.529890e-01
2.376250e-01
4.037030e-01
3.524510e-01
3.108660e-01
2.789470e-01
2.566950e-01
4.382310e-01
3.844130e-01
3.389400e-01
3.018100e-01
2.730250e-01
1.912670e-01
1.917460e-01
1.891230e-01
1.833980e-01
1.745710e-01
2.158160e-01
2.119990e-01
2.057840e-01
1.971710e-01
1.861600e-01
2.376250e-01
2.293790e-01
2.195650e-01
2.081840e-01
1.952360e-01
2.566950e-01
2.438850e-01
2.304660e-01
2.164370e-01
2.017970e-01
2.730250e-01
2.555190e-01
2.384870e-01
2.219290e-01
2.058450e-01
1.745710e-01
1.674620e-01
1.604350e-01
1.534910e-01
1.466300e-01
1.861600e-01
1.770220e-01
1.683960e-01
1.602840e-01
1.526840e-01
1.952360e-01
1.843330e-01
1.743320e-01
1.652320e-01
1.570320e-01
2.017970e-01
1.893970e-01
1.782430e-01
1.683350e-01
1.596740e-01
2.058450e-01
1.922120e-01
1.801290e-01
1.695950e-01
1.606110e-01
1.466300e-01
1.402270e-01
1.342970e-01
1.288390e-01
1.238540e-01
1.526840e-01
1.457270e-01
1.394000e-01
1.337030e-01
1.286370e-01
1.570320e-01
1.496490e-01
1.430310e-01
1.371760e-01
1.320860e-01
1.596740e-01
1.519950e-01
1.451890e-01
1.392580e-01
1.342010e-01
1.606110e-01
1.527630e-01
1.458760e-01
1.399490e-01
1.349830e-01
8.939170e-02
9.291800e-02
9.613740e-02
9.904990e-02
1.016560e-01
8.740010e-02
9.067550e-02
9.364240e-02
9.630100e-02
9.865110e-02
8.530680e-02
8.832890e-02
9.105340e-02
9.348010e-02
9.560910e-02
8.311190e-02
8.587840e-02
8.837020e-02
9.058730e-02
9.252960e-02
8.081530e-02
8.332380e-02
8.559290e-02
8.762250e-02
8.941260e-02
1.016560e-01
1.041230e-01
1.064400e-01
1.086050e-01
1.106180e-01
9.865110e-02
1.008300e-01