<?xml version="1.0"?>
<VTKFile type="UnstructuredGrid" version="0.1" byte_order="LittleEndian" compressor="vtkZLibDataCompressor">
<UnstructuredGrid>
<Piece NumberOfPoints="10000" NumberOfCells="6400">
<Points>
<DataArray type="Float32" NumberOfComponents="3" format="ascii">
-3.360000e+00 0.000000e+00 0.000000e+00
-3.276000e+00 0.000000e+00 0.000000e+00
-3.192000e+00 0.000000e+00 0.000000e+00
-3.108000e+00 0.000000e+00 0.000000e+00
-3.024000e+00 0.000000e+00 0.000000e+00
-3.360000e+00 6.412500e-02 0.000000e+00
-3.276000e+00 6.412500e-02 0.000000e+00
-3.192000e+00 6.412500e-02 0.000000e+00
-3.108000e+00 6.412500e-02 0.000000e+00
-3.024000e+00 6.412500e-02 0.000000e+00
-3.360000e+00 1.282500e-01 0.000000e+00
-3.276000e+00 1.282500e-01 0.000000e+00
-3.192000e+00 1.282500e-01 0.000000e+00
-3.108000e+00 1.282500e-01 0.000000e+00
-3.024000e+00 1.282500e-01 0.000000e+00
-3.360000e+00 1.923750e-01 0.000000e+00
-3.276000e+00 1.923750e-01 0.000000e+00
-3.192000e+00 1.923750e-01 0.000000e+00
-3.108000e+00 1.923750e-01 0.000000e+00
-3.024000e+00 1.923750e-01 0.000000e+00
-3.360000e+00 2.565000e-01 0.000000e+00
-3.276000e+00 2.565000e-01 0.000000e+00
-3.192000e+00 2.565000e-01 0.000000e+00
-3.108000e+00 2.565000e-01 0.000000e+00
-3.024000e+00 2.565000e-01 0.000000e+00
-3.024000e+00 0.000000e+00 0.000000e+00
-2.940000e+00 0.000000e+00 0.000000e+00
-2.856000e+00 0.000000e+00 0.000000e+00
-2.772000e+00 0.000000e+00 0.000000e+00
-2.688000e+00 0.000000e+00 0.000000e+00
-3.024000e+00 6.412500e-02 0.000000e+00
-2.940000e+00 6.412500e-02 0.000000e+00
-2.856000e+00 6.412500e-02 0.000000e+00
-2.772000e+00 6.412500e-02 0.000000e+00
-2.688000e+00 6.412500e-02 0.000000e+00
-3.024000e+00 1.282500e-01 0.000000e+00
-2.940000e+00 1.282500e-01 0.000000e+00
-2.856000e+00 1.282500e-01 0.000000e+00
-2.772000e+00 1.282500e-01 0.000000e+00
-2.688000e+00 1.282500e-01 0.000000e+00
-3.024000e+00 1.923750e-01 0.000000e+00
-2.940000e+00 1.923750e-01 0.000000e+00
-2.856000e+00 1.923750e-01 0.000000e+00
-2.772000e+00 1.923750e-01 0.000000e+00
-2.688000e+00 1.923750e-01 0.000000e+00
-3.024000e+00 2.565000e-01 0.000000e+00
-2.940000e+00 2.565000e-01 0.000000e+00
-2.856000e+00 2.565000e-01 0.000000e+00
-2.772000e+00 2.565000e-01 0.000000e+00
-2.688000e+00 2.565000e-01 0.000000e+00
-2.688000e+00 0.000000e+00 0.000000e+00
-2.604000e+00 0.000000e+00 0.000000e+00
-2.520000e+00 0.000000e+00 0.000000e+00
-2.436000e+00 0.000000e+00 0.000000e+00
-2.352000e+00 0.000000e+00 0.000000e+00
-2.688000e+00 6.412500e-02 0.000000e+00
-2.604000e+00 6.412500e-02 0.000000e+00
-2.520000e+00 6.412500e-02 0.000000e+00
-2.436000e+00 6.412500e-02 0.000000e+00
-2.352000e+00 6.412500e-02 0.000000e+00
-2.688000e+00 1.282500e-01 0.000000e+00
-2.604000e+00 1.282500e-01 0.000000e+00
-2.520000e+00 1.282500e-01 0.000000e+00
-2.436000e+00 1.282500e-01 0.000000e+00
-2.352000e+00 1.282500e-01 0.000000e+00
-2.688000e+00 1.923750e-01 0.000000e+00
-2.604000e+00 1.923750e-01 0.000000e+00
-2.520000e+00 1.923750e-01 0.000000e+00
-2.436000e+00 1.923750e-01 0.000000e+00
-2.352000e+00 1.923750e-01 0.000000e+00
-2.688000e+00 2.565000e-01 0.000000e+00
-2.604000e+00 2.565000e-01 0.000000e+00
-2.520000e+00 2.565000e-01 0.000000e+00
-2.436000e+00 2.565000e-01 0.000000e+00
-2.352000e+00 2.565000e-01 0.000000e+00
-2.352000e+00 0.000000e+00 0.000000e+00
-2.268000e+00 0.000000e+00 0.000000e+00
-2.184000e+00 0.000000e+00 0.000000e+00
-2.100000e+00 0.000000e+00 0.000000e+00
-2.016000e+00 0.000000e+00 0.000000e+00
-2.352000e+00 6.412500e-02 0.000000e+00
-2.268000e+00 6.412500e-02 0.000000e+00
-2.184000e+00 6.412500e-02 0.000000e+00
-2.100000e+00 6.412500e-02 0.000000e+00
-2.016000e+00 6.412500e-02 0.000000e+00
-2.352000e+00 1.282500e-01 0.000000e+00
-2.268000e+00 1.282500e-01 0.000000e+00
-2.184000e+00 1.282500e-01 0.000000e+00
-2.100000e+00 1.282500e-01 0.000000e+00
-2.016000e+00 1.282500e-01 0.000000e+00
-2.352000e+00 1.923750e-01 0.000000e+00
-2.268000e+00 1.923750e-01 0.000000e+00
-2.184000e+00 1.923750e-01 0.000000e+00
-2.100000e+00 1.923750e-01 0.000000e+00
-2.016000e+00 1.923750e-01 0.000000e+00
-2.352000e+00 2.565000e-01 0.000000e+00
-2.268000e+00 2.565000e-01 0.000000e+00
-2.184000e+00 2.565000e-01 0.000000e+00
-2.100000e+00 2.565000e-01 0.000000e+00
-2.016000e+00 2.565000e-01 0.000000e+00
-2.016000e+00 0.000000e+00 0.000000e+00
-1.932000e+00 0.000000e+00 0.000000e+00
-1.848000e+00 0.000000e+00 0.000000e+00
-1.764000e+00 0.000000e+00 0.000000e+00
-1.680000e+00 0.000000e+00 0.000000e+00
-2.016000e+00 6.412500e-02 0.000000e+00
-1.932000e+00 6.412500e-02 0.000000e+00
-1.848000e+00 6.412500e-02 0.000000e+00
-1.764000e+00 6.412500e-02 0.000000e+00
-1.680000e+00 6.412500e-02 0.000000e+00
-2.016000e+00 1.282500e-01 0.000000e+00
-1.932000e+00 1.282500e-01 0.000000e+00
-1.848000e+00 1.282500e-01 0.000000e+00
-1.764000e+00 1.282500e-01 0.000000e+00
-1.680000e+00 1.282500e-01 0.000000e+00
-2.016000e+00 1.923750e-01 0.000000e+00
-1.932000e+00 1.923750e-01 0.000000e+00
-1.848000e+00 1.923750e-01 0.000000e+00
-1.764000e+00 1.923750e-01 0.000000e+00
-1.680000e+00 1.923750e-01 0.000000e+00
-2.016000e+00 2.565000e-01 0.000000e+00
-1.932000e+00 2.565000e-01 0.000000e+00
-1.848000e+00 2.565000e-01 0.000000e+00
-1.764000e+00 2.565000e-01 0.000000e+00
-1.680000e+00 2.565000e-01 0.000000e+00
-1.680000e+00 0.000000e+00 0.000000e+00
-1.596000e+00 0.000000e+00 0.000000e+00
-1.512000e+00 0.000000e+00 0.000000e+00
-1.428000e+00 0.000000e+00 0.000000e+00
-1.344000e+00 0.000000e+00 0.000000e+00
-1.680000e+00 6.412500e-02 0.000000e+00
-1.596000e+00 6.412500e-02 0.000000e+00
-1.512000e+00 6.412500e-02 0.000000e+00
-1.428000e+00 6.412500e-02 0.000000e+00
-1.344000e+00 6.412500e-02 0.000000e+00
-1.680000e+00 1.282500e-01 0.000000e+00
-1.596000e+00 1.282500e-01 0.000000e+00
-1.512000e+00 1.282500e-01 0.000000e+00
-1.428000e+00 1.282500e-01 0.000000e+00
-1.344000e+00 1.282500e-01 0.000000e+00
-1.680000e+00 1.923750e-01 0.000000e+00
-1.596000e+00 1.923750e-01 0.000000e+00
-1.512000e+00 1.923750e-01 0.000000e+00
-1.428000e+00 1.923750e-01 0.000000e+00
-1.344000e+00 1.923750e-01 0.000000e+00
-1.680000e+00 2.565000e-01 0.000000e+00
-1.596000e+00 2.565000e-01 0.000000e+00
-1.512000e+00 2.565000e-01 0.000000e+00
-1.428000e+00 2.565000e-01 0.000000e+00
-1.344000e+00 2.565000e-01 0.000000e+00
-1.344000e+00 0.000000e+00 0.000000e+00
-1.260000e+00 0.000000e+00 0.000000e+00
-1.176000e+00 0.000000e+00 0.000000e+00
-1.092000e+00 0.000000e+00 0.000000e+00
-1.008000e+00 0.000000e+00 0.000000e+00
-1.344000e+00 6.412500e-02 0.000000e+00
-1.260000e+00 6.412500e-02 0.000000e+00
-1.176000e+00 6.412500e-02 0.000000e+00
-1.092000e+00 6.412500e-02 0.000000e+00
-1.008000e+00 6.412500e-02 0.000000e+00
-1.344000e+00 1.282500e-01 0.000000e+00
-1.260000e+00 1.282500e-01 0.000000e+00
-1.176000e+00 1.282500e-01 0.000000e+00
-1.092000e+00 1.282500e-01 0.000000e+00
-1.008000e+00 1.282500e-01 0.000000e+00
-1.344000e+00 1.923750e-01 0.000000e+00
-1.260000e+00 1.923750e-01 0.000000e+00
-1.176000e+00 1.923750e-01 0.000000e+00
-1.092000e+00 1.923750e-01 0.000000e+00
-1.008000e+00 1.923750e-01 0.000000e+00
-1.344000e+00 2.565000e-01 0.000000e+00
-1.260000e+00 2.565000e-01 0.000000e+00
-1.176000e+00 2.565000e-01 0.000000e+00
-1.092000e+00 2.565000e-01 0.000000e+00
-1.008000e+00 2.565000e-01 0.000000e+00
-1.008000e+00 0.000000e+00 0.000000e+00
-9.240000e-01 0.000000e+00 0.000000e+00
-8.400000e-01 0.000000e+00 0.000000e+00
-7.560000e-01 0.000000e+00 0.000000e+00
-6.720000e-01 0.000000e+00 0.000000e+00
-1.008000e+00 6.412500e-02 0.000000e+00
-9.240000e-01 6.412500e-02 0.000000e+00
-8.400000e-01 6.412500e-02 0.000000e+00
-7.560000e-01 6.412500e-02 0.000000e+00
-6.720000e-01 6.412500e-02 0.000000e+00
-1.008000e+00 1.282500e-01 0.000000e+00
-9.240000e-01 1.282500e-01 0.000000e+00
-8.400000e-01 1.282500e-01 0.000000e+00
-7.560000e-01 1.282500e-01 0.000000e+00
-6.720000e-01 1.282500e-01 0.000000e+00
-1.008000e+00 1.923750e-01 0.000000e+00
-9.240000e-01 1.923750e-01 0.000000e+00
-8.400000e-01 1.923750e-01 0.000000e+00
-7.560000e-01 1.923750e-01 0.000000e+00
-6.720000e-01 1.923750e-01 0.000000e+00
-1.008000e+00 2.565000e-01 0.000000e+00
-9.240000e-01 2.565000e-01 0.000000e+00
-8.400000e-01 2.565000e-01 0.000000e+00
-7.560000e-01 2.565000e-01 0.000000e+00
-6.720000e-01 2.565000e-01 0.000000e+00
-6.720000e-01 0.000000e+00 0.000000e+00
-5.880000e-01 0.000000e+00 0.000000e+00
-5.040000e-01 0.000000e+00 0.000000e+00
-4.200000e-01 0.000000e+00 0.000000e+00
-3.360000e-01 0.000000e+00 0.000000e+00
-6.720000e-01 6.412500e-02 0.000000e+00
-5.880000e-01 6.412500e-02 0.000000e+00
-5.040000e-01 6.412500e-02 0.000000e+00
-4.200000e-01 6.412500e-02 0.000000e+00
-3.360000e-01 6.412500e-02 0.000000e+00
-6.720000e-01 1.282500e-01 0.000000e+00
-5.880000e-01 1.282500e-01 0.000000e+00
-5.040000e-01 1.282500e-01 0.000000e+00
-4.200000e-01 1.282500e-01 0.000000e+00
-3.360000e-01 1.282500e-01 0.000000e+00
-6.720000e-01 1.923750e-01 0.000000e+00
-5.880000e-01 1.923750e-01 0.000000e+00
-5.040000e-01 1.923750e-01 0.000000e+00
-4.200000e-01 1.923750e-01 0.000000e+00
-3.360000e-01 1.923750e-01 0.000000e+00
-6.720000e-01 2.565000e-01 0.000000e+00
-5.880000e-01 2.565000e-01 0.000000e+00
-5.040000e-01 2.565000e-01 0.000000e+00
-4.200000e-01 2.565000e-01 0.000000e+00
-3.360000e-01 2.565000e-01 0.000000e+00
-3.360000e-01 0.000000e+00 0.000000e+00
-2.520000e-01 0.000000e+00 0.000000e+00
-1.680000e-01 0.000000e+00 0.000000e+00
-8.400000e-02 0.000000e+00 0.000000e+00
-4.440890e-16 0.000000e+00 0.000000e+00
-3.360000e-01 6.412500e-02 0.000000e+00
-2.520000e-01 6.412500e-02 0.000000e+00
-1.680000e-01 6.412500e-02 0.000000e+00
-8.400000e-02 6.412500e-02 0.000000e+00
-4.440890e-16 6.412500e-02 0.000000e+00
-3.360000e-01 1.282500e-01 0.000000e+00
-2.520000e-01 1.282500e-01 0.000000e+00
-1.680000e-01 1.282500e-01 0.000000e+00
-8.400000e-02 1.282500e-01 0.000000e+00
-4.440890e-16 1.282500e-01 0.000000e+00
-3.360000e-01 1.923750e-01 0.000000e+00
-2.520000e-01 1.923750e-01 0.000000e+00
-1.680000e-01 1.923750e-01 0.000000e+00
[...]
<PointData>
<DataArray type="Float32" Name="V1" format="ascii">
0.000000e+00
0.000000e+00
0.000000e+00
0.000000e+00
0.000000e+00
6.347820e-02
5.968750e-02
5.541950e-02
5.067420e-02
4.545160e-02
1.013490e-01
9.781760e-02
9.302650e-02
8.697540e-02
7.966410e-02
1.136110e-01
1.143900e-01
1.128210e-01
1.089040e-01
1.026380e-01
1.002660e-01
1.094060e-01
1.148030e-01
1.164590e-01
1.143720e-01
0.000000e+00
0.000000e+00
0.000000e+00
0.000000e+00
0.000000e+00
4.545160e-02
3.971230e-02
3.532720e-02
3.229650e-02
3.062010e-02
7.966410e-02
7.131970e-02
6.476990e-02
6.001460e-02
5.705390e-02
1.026380e-01
9.482240e-02
8.832800e-02
8.315430e-02
7.930140e-02
1.143720e-01
1.102200e-01
1.060020e-01
1.017160e-01
9.736250e-02
0.000000e+00
0.000000e+00
0.000000e+00
0.000000e+00
0.000000e+00
3.062010e-02
2.915460e-02
2.798640e-02
2.711540e-02
2.654170e-02
5.705390e-02
5.455490e-02
5.260820e-02
5.121370e-02
5.037150e-02
7.930140e-02
7.620090e-02
7.386540e-02
7.229490e-02
7.148940e-02
9.736250e-02
9.409260e-02
9.175810e-02
9.035900e-02
8.989540e-02
0.000000e+00
0.000000e+00
0.000000e+00
0.000000e+00
0.000000e+00
2.654170e-02
2.611650e-02
2.599820e-02
2.618680e-02
2.668230e-02
5.037150e-02
4.981110e-02
4.975960e-02
5.021700e-02
5.118320e-02
7.148940e-02
7.108390e-02
7.128430e-02
7.209050e-02
7.350260e-02
8.989540e-02
8.993490e-02
9.057220e-02
9.180750e-02
9.364050e-02
0.000000e+00
0.000000e+00
0.000000e+00
0.000000e+00
0.000000e+00
2.668230e-02
2.732320e-02
2.816220e-02
2.919940e-02
3.043480e-02
5.118320e-02
5.242530e-02
5.403110e-02
5.600050e-02
5.833350e-02
7.350260e-02
7.530650e-02
7.760670e-02
8.040330e-02
8.369630e-02
9.364050e-02
9.596660e-02
9.888900e-02
1.024080e-01
1.065230e-01
0.000000e+00
0.000000e+00
0.000000e+00
0.000000e+00
0.000000e+00
3.043480e-02
3.186340e-02
3.361030e-02
3.567540e-02
3.805870e-02
5.833350e-02
6.101090e-02
6.423760e-02
6.801340e-02
7.233850e-02
8.369630e-02
8.744250e-02
9.188170e-02
9.701400e-02
1.028390e-01
1.065230e-01
1.111580e-01
1.165430e-01
1.226770e-01
1.295610e-01
0.000000e+00
0.000000e+00
0.000000e+00
0.000000e+00
0.000000e+00
3.805870e-02
4.069480e-02
4.383540e-02
4.748060e-02
5.163030e-02
7.233850e-02
7.710580e-02
8.272920e-02
8.920880e-02
9.654460e-02
1.028390e-01
1.092330e-01
1.166810e-01
1.251850e-01
1.347430e-01
1.295610e-01
1.370760e-01
1.456920e-01
1.554090e-01
1.662260e-01
0.000000e+00
0.000000e+00
0.000000e+00
0.000000e+00
0.000000e+00
5.163030e-02
5.604920e-02
6.133960e-02
6.750140e-02
7.453470e-02
9.654460e-02
1.043390e-01
1.135770e-01
1.242590e-01
1.363830e-01
1.347430e-01
1.448700e-01
1.567130e-01
1.702710e-01
1.855450e-01
1.662260e-01
1.776430e-01
1.907470e-01
2.055400e-01
2.220210e-01
0.000000e+00
0.000000e+00
0.000000e+00
0.000000e+00
0.000000e+00
7.453470e-02
8.170450e-02
9.025430e-02
1.001840e-01
1.114940e-01
1.363830e-01
1.487490e-01
1.633530e-01
1.801960e-01
1.992780e-01
1.855450e-01
2.011320e-01
2.192960e-01
2.400360e-01
2.633520e-01
2.220210e-01
2.388560e-01
2.580830e-01
2.797040e-01
3.037180e-01
0.000000e+00
0.000000e+00
0.000000e+00
0.000000e+00
0.000000e+00
1.114940e-01
1.230190e-01
1.359610e-01
1.503190e-01
1.660940e-01
1.992780e-01
2.188230e-01
2.406320e-01
2.647040e-01
2.910410e-01
2.633520e-01
2.874110e-01
3.140120e-01
3.431560e-01
3.748410e-01
3.037180e-01
3.287840e-01
3.561030e-01
3.856730e-01
4.174950e-01
0.000000e+00
0.000000e+00
0.000000e+00
0.000000e+00
0.000000e+00
1.660940e-01
1.838490e-01
2.011640e-01
2.180390e-01
2.344720e-01
2.910410e-01
3.208630e-01
3.501150e-01
3.787980e-01
4.069110e-01
3.748410e-01
4.110410e-01
4.468530e-01
4.822780e-01
5.173150e-01
4.174950e-01
4.543830e-01
4.913780e-01
5.284790e-01
5.656860e-01
0.000000e+00
0.000000e+00
0.000000e+00
0.000000e+00
0.000000e+00
2.344720e-01
2.548300e-01
2.709780e-01
2.829180e-01
2.906480e-01
4.069110e-01
4.417620e-01
4.703920e-01
4.928000e-01
5.089870e-01
5.173150e-01
5.607960e-01
5.982400e-01
6.296480e-01
6.550200e-01
5.656860e-01
6.119310e-01
6.545230e-01
6.934600e-01
7.287440e-01
0.000000e+00
0.000000e+00
0.000000e+00
0.000000e+00
0.000000e+00
2.906480e-01
2.947330e-01
2.928320e-01
2.849460e-01
2.710730e-01
5.089870e-01
5.200530e-01
5.216340e-01
5.137290e-01
4.963400e-01
6.550200e-01
6.759600e-01
6.864040e-01
6.863500e-01
6.757990e-01
7.287440e-01
7.624550e-01
7.871440e-01
8.028090e-01
8.094520e-01
0.000000e+00
0.000000e+00
0.000000e+00
0.000000e+00
0.000000e+00
2.710730e-01
2.415830e-01
2.117100e-01
1.814540e-01
1.508150e-01
4.963400e-01
4.530970e-01
4.068040e-01
3.574580e-01
3.050610e-01
6.757990e-01
6.345440e-01
5.852820e-01
5.280140e-01
4.627380e-01
8.094520e-01
7.859230e-01
7.471450e-01
6.931200e-01
6.238460e-01
0.000000e+00
0.000000e+00
0.000000e+00
0.000000e+00
0.000000e+00
1.508150e-01
1.214710e-01
9.521280e-02
7.204070e-02
5.195450e-02
3.050610e-01
2.504690e-01
2.002290e-01
1.543420e-01
1.128070e-01
4.627380e-01
3.869950e-01
3.150500e-01
2.469050e-01
1.825580e-01
6.238460e-01
5.310470e-01
4.396750e-01
3.497280e-01
2.612080e-01
0.000000e+00
0.000000e+00
0.000000e+00
0.000000e+00
0.000000e+00
5.195450e-02
3.886040e-02
2.595400e-02
1.323510e-02
7.037410e-04
1.128070e-01
8.526730e-02
5.929300e-02
3.488430e-02
1.204110e-02
1.825580e-01
1.392210e-01
1.000170e-01
6.494760e-02
3.401220e-02
2.612080e-01
2.007210e-01
1.481260e-01
1.034250e-01
6.661680e-02
0.000000e+00
0.000000e+00
0.000000e+00
0.000000e+00
0.000000e+00
7.037410e-04
-7.340000e-03
-1.196300e-02
-1.316540e-02
-1.094700e-02
1.204110e-02
-2.781180e-03
-1.135100e-02
-1.366820e-02
-9.732960e-03
3.401220e-02
1.367650e-02
1.836270e-03
-1.508490e-03
3.642210e-03
6.661680e-02
4.203300e-02
2.759860e-02
2.331380e-02
2.917850e-02
0.000000e+00
0.000000e+00
0.000000e+00
0.000000e+00
0.000000e+00
-1.094700e-02
-1.003990e-02
-8.198660e-03
-5.423240e-03
-1.713660e-03
-9.732960e-03
-7.910930e-03
-4.695320e-03
-8.613120e-05
5.916630e-03
3.642210e-03
6.386980e-03
1.051000e-02
1.601130e-02
2.289090e-02
2.917850e-02
3.285380e-02
3.741730e-02
4.286910e-02
4.920910e-02
0.000000e+00
0.000000e+00
0.000000e+00
0.000000e+00
0.000000e+00
-1.713660e-03
7.096440e-04
2.638510e-03
4.072950e-03
5.012950e-03
5.916630e-03
9.779820e-03
1.276750e-02
1.487960e-02
1.611620e-02
2.289090e-02
2.721050e-02
3.038690e-02
3.242000e-02
3.330990e-02
4.920910e-02
5.300180e-02
5.549680e-02
5.669420e-02
5.659390e-02
0.000000e+00
0.000000e+00
0.000000e+00
0.000000e+00
0.000000e+00
5.012950e-03
6.165530e-03
5.944620e-03
4.350220e-03
1.382330e-03
1.611620e-02
1.750540e-02
1.693760e-02
1.441280e-02
9.931020e-03
3.330990e-02
3.401980e-02
3.297910e-02
3.018780e-02
2.564610e-02
5.659390e-02
5.570850e-02
5.406890e-02
5.167530e-02
4.852750e-02
1.002660e-01
1.094060e-01
1.148030e-01
1.164590e-01
1.143720e-01
9.945850e-02
1.078040e-01
1.137660e-01
1.173430e-01
1.185370e-01
9.848610e-02
1.058580e-01
1.119030e-01
1.166210e-01
1.200120e-01
9.734850e-02
1.035680e-01
1.092160e-01
1.142920e-01
1.187970e-01
9.604590e-02
1.009330e-01
1.057040e-01
1.103560e-01
1.148920e-01
1.143720e-01
1.102200e-01
1.060020e-01
1.017160e-01
9.736250e-02
1.185370e-01
1.172670e-01
1.153230e-01
1.127060e-01
1.094150e-01
1.200120e-01
1.209700e-01
1.208740e-01
1.197240e-01
1.175200e-01
1.187970e-01
1.213290e-01
1.226530e-01
1.227690e-01
1.216770e-01
1.148920e-01
1.183450e-01
1.206620e-01
1.218430e-01
1.218870e-01
9.736250e-02
9.409260e-02
9.175810e-02
9.035900e-02
8.989540e-02
1.094150e-01
1.066580e-01
1.047380e-01
1.036530e-01
1.034040e-01
1.175200e-01
1.154150e-01
1.140050e-01
1.132900e-01
1.132700e-01
1.216770e-01
1.203630e-01
1.195610e-01
1.192710e-01
1.194940e-01
1.218870e-01
1.215020e-01
1.214050e-01
1.215960e-01
1.220760e-01
8.989540e-02
8.993490e-02
9.057220e-02
9.180750e-02
9.364050e-02
1.034040e-01
1.037370e-01
1.046730e-01
1.062110e-01
1.083510e-01
1.132700e-01
1.138600e-01
1.150350e-01
1.167950e-01
1.191420e-01
1.194940e-01
1.203020e-01
1.216580e-01
1.235620e-01
1.260130e-01
1.220760e-01
1.230650e-01
1.245430e-01
1.265100e-01
1.289660e-01
9.364050e-02
9.596660e-02
9.888900e-02
1.024080e-01
1.065230e-01
1.083510e-01
1.109820e-01
1.142360e-01
1.181120e-01
1.226100e-01
1.191420e-01
1.219660e-01
1.254140e-01
1.294860e-01
1.341810e-01
1.260130e-01
1.289180e-01
1.324240e-01
1.365290e-01
1.412350e-01
1.289660e-01
1.318380e-01
1.352640e-01
1.392420e-01
1.437730e-01
1.065230e-01
1.111580e-01
1.165430e-01
1.226770e-01
1.295610e-01
1.226100e-01
1.276380e-01
1.334180e-01
1.399480e-01
1.472290e-01
1.341810e-01
1.393970e-01
1.453470e-01
1.520310e-01
1.594480e-01
1.412350e-01
1.464330e-01
1.523300e-01
1.589250e-01
1.662180e-01
1.437730e-01
1.487480e-01
1.543670e-01
1.606310e-01
1.675390e-01
1.295610e-01
1.370760e-01
1.456920e-01
1.554090e-01
1.662260e-01
1.472290e-01
1.550930e-01
1.640320e-01
1.740470e-01
1.851380e-01
1.594480e-01
1.673930e-01
1.763720e-01
1.863850e-01
1.974330e-01
1.662180e-01
1.739770e-01
1.827120e-01
1.924230e-01
2.031110e-01
1.675390e-01
1.748450e-01
1.830520e-01
1.921610e-01
2.021720e-01
1.662260e-01
1.776430e-01
1.907470e-01
2.055400e-01
2.220210e-01
1.851380e-01
1.966970e-01
2.099030e-01
2.247560e-01
2.412550e-01
1.974330e-01
2.088320e-01
2.218260e-01
2.364170e-01
2.526040e-01
2.031110e-01
2.140450e-01
2.265160e-01
2.405240e-01
2.560680e-01
2.021720e-01
2.123380e-01
2.239730e-01
2.370760e-01
2.516470e-01
2.220210e-01
2.388560e-01
2.580830e-01
2.797040e-01
3.037180e-01
2.412550e-01
2.578400e-01
2.768430e-01
2.982650e-01
3.221050e-01
2.526040e-01
2.686270e-01
2.871060e-01
3.080400e-01
3.314300e-01
2.560680e-01
2.712180e-01
2.888710e-01
3.090290e-01
3.316910e-01
2.516470e-01
2.656110e-01
2.821390e-01
3.012320e-01
3.228880e-01
3.037180e-01
3.287840e-01
3.561030e-01
3.856730e-01
4.174950e-01
3.221050e-01
3.465960e-01
3.736060e-01
4.031350e-01
4.351850e-01
3.314300e-01
3.550290e-01
3.814320e-01
4.106390e-01
4.426490e-01
3.316910e-01
3.540860e-01
3.795830e-01
4.081830e-01
4.398850e-01
3.228880e-01
3.437650e-01
3.680580e-01
3.957680e-01
4.268950e-01
4.174950e-01
4.543830e-01
4.913780e-01
5.284790e-01
5.656860e-01
4.351850e-01
4.723150e-01
5.100050e-01
5.482550e-01
5.870650e-01
4.426490e-01
4.796640e-01
5.176610e-01
5.566370e-01
5.965950e-01
4.398850e-01
4.764300e-01
5.143440e-01
5.536260e-01
5.942760e-01
4.268950e-01
4.626140e-01
5.000550e-01
5.392190e-01
5.801070e-01
5.656860e-01
6.119310e-01
6.545230e-01
6.934600e-01
7.287440e-01
5.870650e-01
6.367480e-01
6.831070e-01
7.261440e-01
7.658560e-01
5.965950e-01
6.494080e-01
6.991300e-01
7.457610e-01
7.893010e-01
5.942760e-01
6.499110e-01
7.025900e-01
7.523130e-01
7.990800e-01
5.801070e-01
6.382570e-01
6.934880e-01
7.457990e-01
7.951910e-01
7.287440e-01
7.624550e-01
7.871440e-01
8.028090e-01
8.094520e-01
7.658560e-01
8.075240e-01
8.408710e-01
8.659000e-01
8.826080e-01
7.893010e-01
8.381030e-01
8.789610e-01
9.118750e-01
9.368450e-01
7.990800e-01
8.541930e-01
9.014110e-01
9.407350e-01
9.721630e-01
7.951910e-01
8.557940e-01
9.082240e-01
9.524790e-01
9.885620e-01
8.094520e-01
7.859230e-01
7.471450e-01
6.931200e-01
6.238460e-01
8.826080e-01
8.731940e-01
8.492500e-01
8.107770e-01
7.577740e-01
9.368450e-01
9.378910e-01
9.256900e-01
9.002450e-01
8.615530e-01
9.721630e-01
9.800130e-01
9.764660e-01
9.615230e-01
9.351840e-01
9.885620e-01
9.995600e-01
1.001580e+00
9.946120e-01
9.786660e-01
6.238460e-01
5.310470e-01
4.396750e-01
3.497280e-01
2.612080e-01
7.577740e-01
6.669040e-01
5.700480e-01
4.672030e-01
3.583710e-01
8.615530e-01
7.780760e-01
6.824840e-01
5.747760e-01
4.549530e-01
9.351840e-01
8.645620e-01
7.769840e-01
6.724480e-01
5.509540e-01
9.786660e-01
9.263630e-01
8.535470e-01
7.602170e-01
6.463740e-01
2.612080e-01
2.007210e-01
1.481260e-01
1.034250e-01
6.661680e-02
3.583710e-01
2.805520e-01
2.132150e-01
1.563630e-01
1.099940e-01
4.549530e-01
3.635620e-01
2.836250e-01
2.151440e-01
1.581170e-01
5.509540e-01
4.497510e-01
3.593560e-01
2.797680e-01
2.109870e-01
6.463740e-01
5.391200e-01
4.404070e-01
3.502350e-01
2.686020e-01
6.661680e-02
4.203300e-02
2.759860e-02
2.331380e-02
2.917850e-02
1.099940e-01
7.797470e-02
5.818590e-02
5.062750e-02
5.529950e-02
1.581170e-01
1.180170e-01
9.199430e-02
8.004750e-02
8.217720e-02
2.109870e-01
1.621610e-01
1.290240e-01
1.115740e-01
1.098120e-01
2.686020e-01
2.104060e-01
1.692740e-01
1.452060e-01
1.382030e-01
2.917850e-02
3.285380e-02
3.741730e-02
4.286910e-02
4.920910e-02
5.529950e-02
5.858860e-02
6.269450e-02
6.761710e-02
7.335650e-02
8.217720e-02
8.396400e-02
8.675610e-02
9.055350e-02
9.535630e-02
1.098120e-01
1.089800e-01
1.096020e-01
1.116780e-01
1.152080e-01
1.382030e-01
1.336360e-01
1.312330e-01
1.309920e-01
1.329130e-01
4.920910e-02
5.300180e-02
5.549680e-02
5.669420e-02
5.659390e-02
7.335650e-02
7.629170e-02
7.783250e-02
7.797900e-02
7.673110e-02
9.535630e-02
9.726560e-02
9.773740e-02
9.677170e-02
9.436840e-02
1.152080e-01
1.159240e-01
1.152110e-01
1.130720e-01
1.095060e-01
1.329130e-01
1.322650e-01
1.302550e-01
1.268810e-01
1.221430e-01
5.659390e-02
5.570850e-02
5.406890e-02
5.167530e-02
4.852750e-02
7.673110e-02
7.516640e-02
7.291900e-02
6.998900e-02
6.637640e-02
9.436840e-02
9.208120e-02
8.921200e-02
8.576090e-02
8.172790e-02
1.095060e-01
1.064530e-01
1.029480e-01
9.899100e-02
9.458210e-02
1.221430e-01
1.182820e-01
1.141270e-01
1.096790e-01
1.049390e-01
9.604590e-02
1.009330e-01
1.057040e-01
1.103560e-01
1.148920e-01
9.458900e-02
9.895560e-02
1.032600e-01
1.075020e-01
1.116820e-01
9.299440e-02
9.697810e-02
1.008870e-01
1.047200e-01
1.084790e-01
9.126190e-02
9.500100e-02
9.858390e-02
1.020110e-01
1.052810e-01
8.939170e-02
9.302420e-02
9.635130e-02
9.937300e-02
1.020890e-01
1.148920e-01
1.183450e-01
1.206620e-01
1.218430e-01
1.218870e-01
1.116820e-01
1.151450e-01
1.177110e-01
1.193810e-01
1.201530e-01
1.084790e-01
1.117900e-01
1.144300e-01
1.163990e-01
1.176960e-01
1.052810e-01
1.082810e-01
1.108190e-01
1.128980e-01
1.145150e-01
1.020890e-01
1.046160e-01
1.068790e-01
1.088770e-01
1.106100e-01
1.218870e-01
1.215020e-01
1.214050e-01
1.215960e-01
1.220760e-01
1.201530e-01
1.204480e-01
1.209070e-01
1.215290e-01
1.223150e-01
1.176960e-01
1.185270e-01
1.194330e-01
1.204130e-01
1.214680e-01
1.145150e-01
1.157380e-01
1.169820e-01
1.182490e-01
1.195380e-01
1.106100e-01
1.120800e-01
1.135550e-01
1.150370e-01
1.165240e-01
1.220760e-01
1.230650e-01
1.245430e-01
1.265100e-01
1.289660e-01
1.223150e-01
1.234950e-01
1.251010e-01
1.271320e-01
1.295890e-01
1.214680e-01
1.228240e-01
1.245450e-01
1.266300e-01
1.290810e-01
1.195380e-01
1.210510e-01
1.228730e-01
1.250030e-01
1.274430e-01
1.165240e-01
1.181760e-01
1.200860e-01
1.222510e-01
1.246740e-01
1.289660e-01
1.318380e-01
1.352640e-01
1.392420e-01
1.437730e-01
1.295890e-01
1.324240e-01
1.357690e-01
1.396260e-01
1.439940e-01
1.290810e-01
1.318720e-01
1.351320e-01
1.388620e-01
1.430610e-01
1.274430e-01
1.301840e-01
1.333530e-01
1.369500e-01
1.409750e-01
1.246740e-01
1.273580e-01
1.304300e-01
1.338890e-01
1.377350e-01
1.437730e-01
1.487480e-01
1.543670e-01
1.606310e-01
1.675390e-01
1.439940e-01
1.487590e-01
1.541330e-01
1.601160e-01
1.667070e-01
1.430610e-01
1.476120e-01
1.527350e-01
1.584320e-01
1.647020e-01
1.409750e-01
1.453050e-01
1.501740e-01
1.555800e-01
1.615230e-01
1.377350e-01
1.418410e-01
1.464490e-01
1.515590e-01
1.571710e-01
1.675390e-01
1.748450e-01
1.830520e-01
1.921610e-01
2.021720e-01
1.667070e-01
1.736410e-01
1.814360e-01
1.900940e-01
1.996140e-01
1.647020e-01
1.712580e-01
1.786350e-01
1.868320e-01
1.958480e-01
1.615230e-01
1.676980e-01
1.746480e-01
1.823740e-01
1.908750e-01
1.571710e-01
1.629590e-01
1.694760e-01
1.767210e-01
1.846940e-01
2.021720e-01
2.123380e-01
2.239730e-01
2.370760e-01
2.516470e-01
1.996140e-01
2.092200e-01
2.202620e-01
2.327410e-01
2.466550e-01
1.958480e-01
2.048800e-01
2.153010e-01
2.271120e-01
2.403120e-01
1.908750e-01
1.993180e-01
2.090890e-01
2.201890e-01
2.326170e-01
1.846940e-01
1.925340e-01
2.016260e-01
2.119720e-01
2.235710e-01
2.516470e-01
2.656110e-01
2.821390e-01
3.012320e-01
3.228880e-01
2.466550e-01
2.597570e-01
2.755150e-01
2.939290e-01
3.150010e-01
2.403120e-01
2.525040e-01
2.673940e-01
2.849820e-01
3.052680e-01
2.326170e-01
2.438520e-01
2.577760e-01
2.743880e-01
2.936890e-01
2.235710e-01
2.338020e-01
2.466620e-01
2.621490e-01
2.802650e-01
3.228880e-01
3.437650e-01
3.680580e-01
3.957680e-01
4.268950e-01
3.150010e-01
3.345690e-01
3.579300e-01
3.850830e-01
4.160280e-01
3.052680e-01
3.232250e-01
3.453510e-01
3.716490e-01
4.021160e-01
2.936890e-01
3.097300e-01
3.303220e-01
3.554650e-01
3.851600e-01
2.802650e-01
2.940860e-01
3.128410e-01
3.365330e-01
3.651590e-01
4.268950e-01
4.626140e-01
5.000550e-01
5.392190e-01
5.801070e-01
4.160280e-01
4.508720e-01
4.877810e-01
5.267550e-01
5.677950e-01
4.021160e-01
4.353530e-01
4.709560e-01
5.089260e-01
5.492640e-01
3.851600e-01
4.160560e-01
4.495800e-01
4.857320e-01
5.245130e-01
3.651590e-01
3.929810e-01
4.236520e-01
4.571730e-01
4.935420e-01
5.801070e-01
6.382570e-01
6.934880e-01
7.457990e-01
7.951910e-01
5.677950e-01
6.288020e-01
6.863970e-01
7.405810e-01
7.913530e-01
5.492640e-01
6.120750e-01
6.706300e-01
7.249270e-01
7.749680e-01
5.245130e-01
5.880770e-01
6.461860e-01
6.988380e-01
7.460340e-01
4.935420e-01
5.568090e-01
6.130660e-01
6.623130e-01
7.045520e-01
7.951910e-01
8.557940e-01
9.082240e-01
9.524790e-01
9.885620e-01
7.913530e-01
8.580060e-01
9.156810e-01
9.643790e-01
1.004100e+00
7.749680e-01
8.458780e-01
9.073240e-01
9.593060e-01
1.001820e+00
7.460340e-01
8.194120e-01
8.831530e-01
9.372590e-01
9.817300e-01
7.045520e-01
7.786060e-01
8.431690e-01
8.982400e-01
9.438190e-01
9.885620e-01
9.995600e-01
1.001580e+00
9.946120e-01
9.786660e-01
1.004100e+00
1.017760e+00
1.022610e+00
1.018680e+00
1.005940e+00
1.001820e+00
1.017790e+00
1.025710e+00
1.025570e+00
1.017380e+00
9.817300e-01
9.996690e-01
1.010860e+00
1.015290e+00
1.012970e+00
9.438190e-01
9.633880e-01
9.780610e-01
9.878380e-01
9.927180e-01
9.786660e-01
9.263630e-01
8.535470e-01
7.602170e-01
6.463740e-01
1.005940e+00
9.601280e-01
8.967550e-01
8.158230e-01
7.173320e-01
1.017380e+00
9.761470e-01
9.209660e-01
8.518320e-01
7.687460e-01
1.012970e+00
9.744210e-01
9.261790e-01
8.682450e-01
8.006170e-01
9.927180e-01
9.549470e-01
9.123950e-01
8.650610e-01
8.129440e-01
6.463740e-01
5.391200e-01
4.404070e-01
3.502350e-01
2.686020e-01
7.173320e-01
6.109500e-01
5.098000e-01
4.138820e-01
3.231960e-01
7.687460e-01
6.672170e-01
5.672390e-01
4.688110e-01
3.719350e-01
8.006170e-01
7.079230e-01
6.127250e-01
5.150240e-01
4.148190e-01
8.129440e-01
7.330670e-01
6.462580e-01
5.525190e-01
4.518490e-01
2.686020e-01
2.104060e-01
1.692740e-01
1.452060e-01
1.382030e-01
3.231960e-01
2.601560e-01
2.133080e-01
1.826540e-01
1.681930e-01
3.719350e-01
3.060810e-01
2.551150e-01
2.190370e-01
1.978470e-01
4.148190e-01
3.481820e-01
2.946940e-01
2.543540e-01
2.271640e-01
4.518490e-01
3.864590e-01
3.320450e-01
2.886060e-01
2.561440e-01
1.382030e-01
1.336360e-01
1.312330e-01
1.309920e-01
1.329130e-01
1.681930e-01
1.581360e-01
1.514320e-01
1.480830e-01
1.480870e-01
1.978470e-01
1.821700e-01
1.709220e-01
1.641030e-01
1.617150e-01
2.271640e-01
2.057380e-01
1.897010e-01
1.790540e-01
1.737960e-01
2.561440e-01
2.288400e-01
2.077700e-01
1.929330e-01
1.843310e-01
1.329130e-01
1.322650e-01
1.302550e-01
1.268810e-01
1.221430e-01
1.480870e-01
1.462260e-01
1.429780e-01
1.383430e-01
1.323210e-01
1.617150e-01
1.584930e-01
1.539390e-01
1.480510e-01
1.408300e-01
1.737960e-01
1.690670e-01
1.631360e-01
1.560040e-01
1.476690e-01
1.843310e-01
1.779480e-01
1.705710e-01
1.622010e-01
1.528380e-01
1.221430e-01
1.182820e-01
1.141270e-01
1.096790e-01
1.049390e-01
1.323210e-01
1.274600e-01
1.226130e-01
1.177820e-01
1.129660e-01
1.408300e-01
1.350080e-01
1.295110e-01
1.243390e-01
1.194900e-01
1.476690e-01
1.409270e-01
1.348210e-01
1.293490e-01
1.245130e-01
1.528380e-01
1.452170e-01
1.385420e-01
1.328140e-01
1.280330e-01
8.939170e-02
9.302420e-02
9.635130e-02
9.937300e-02
1.020890e-01
8.740010e-02
9.077210e-02
9.382490e-02
9.655870e-02
9.897330e-02
8.530680e-02
8.841620e-02
9.120580e-02
9.367560e-02
9.582580e-02
8.311190e-02
8.595650e-02
8.849380e-02
9.072390e-02
9.264680e-02
8.081530e-02
8.339300e-02
8.568910e-02
8.770360e-02
8.943650e-02
1.020890e-01
1.046160e-01
1.068790e-01
1.088770e-01
1.106100e-01
9.897330e-02
1.011600e-01