<?xml version="1.0"?>
<VTKFile type="UnstructuredGrid" version="0.1" byte_order="LittleEndian" compressor="vtkZLibDataCompressor">
<UnstructuredGrid>
<Piece NumberOfPoints="10000" NumberOfCells="6400">
<Points>
<DataArray type="Float32" NumberOfComponents="3" format="ascii">
-3.360000e+00 0.000000e+00 0.000000e+00
-3.276000e+00 0.000000e+00 0.000000e+00
-3.192000e+00 0.000000e+00 0.000000e+00
-3.108000e+00 0.000000e+00 0.000000e+00
-3.024000e+00 0.000000e+00 0.000000e+00
-3.360000e+00 6.412500e-02 0.000000e+00
-3.276000e+00 6.412500e-02 0.000000e+00
-3.192000e+00 6.412500e-02 0.000000e+00
-3.108000e+00 6.412500e-02 0.000000e+00
-3.024000e+00 6.412500e-02 0.000000e+00
-3.360000e+00 1.282500e-01 0.000000e+00
-3.276000e+00 1.282500e-01 0.000000e+00
-3.192000e+00 1.282500e-01 0.000000e+00
-3.108000e+00 1.282500e-01 0.000000e+00
-3.024000e+00 1.282500e-01 0.000000e+00
-3.360000e+00 1.923750e-01 0.000000e+00
-3.276000e+00 1.923750e-01 0.000000e+00
-3.192000e+00 1.923750e-01 0.000000e+00
-3.108000e+00 1.923750e-01 0.000000e+00
-3.024000e+00 1.923750e-01 0.000000e+00
-3.360000e+00 2.565000e-01 0.000000e+00
-3.276000e+00 2.565000e-01 0.000000e+00
-3.192000e+00 2.565000e-01 0.000000e+00
-3.108000e+00 2.565000e-01 0.000000e+00
-3.024000e+00 2.565000e-01 0.000000e+00
-3.024000e+00 0.000000e+00 0.000000e+00
-2.940000e+00 0.000000e+00 0.000000e+00
-2.856000e+00 0.000000e+00 0.000000e+00
-2.772000e+00 0.000000e+00 0.000000e+00
-2.688000e+00 0.000000e+00 0.000000e+00
-3.024000e+00 6.412500e-02 0.000000e+00
-2.940000e+00 6.412500e-02 0.000000e+00
-2.856000e+00 6.412500e-02 0.000000e+00
-2.772000e+00 6.412500e-02 0.000000e+00
-2.688000e+00 6.412500e-02 0.000000e+00
-3.024000e+00 1.282500e-01 0.000000e+00
-2.940000e+00 1.282500e-01 0.000000e+00
-2.856000e+00 1.282500e-01 0.000000e+00
-2.772000e+00 1.282500e-01 0.000000e+00
-2.688000e+00 1.282500e-01 0.000000e+00
-3.024000e+00 1.923750e-01 0.000000e+00
-2.940000e+00 1.923750e-01 0.000000e+00
-2.856000e+00 1.923750e-01 0.000000e+00
-2.772000e+00 1.923750e-01 0.000000e+00
-2.688000e+00 1.923750e-01 0.000000e+00
-3.024000e+00 2.565000e-01 0.000000e+00
-2.940000e+00 2.565000e-01 0.000000e+00
-2.856000e+00 2.565000e-01 0.000000e+00
-2.772000e+00 2.565000e-01 0.000000e+00
-2.688000e+00 2.565000e-01 0.000000e+00
-2.688000e+00 0.000000e+00 0.000000e+00
-2.604000e+00 0.000000e+00 0.000000e+00
-2.520000e+00 0.000000e+00 0.000000e+00
-2.436000e+00 0.000000e+00 0.000000e+00
-2.352000e+00 0.000000e+00 0.000000e+00
-2.688000e+00 6.412500e-02 0.000000e+00
-2.604000e+00 6.412500e-02 0.000000e+00
-2.520000e+00 6.412500e-02 0.000000e+00
-2.436000e+00 6.412500e-02 0.000000e+00
-2.352000e+00 6.412500e-02 0.000000e+00
-2.688000e+00 1.282500e-01 0.000000e+00
-2.604000e+00 1.282500e-01 0.000000e+00
-2.520000e+00 1.282500e-01 0.000000e+00
-2.436000e+00 1.282500e-01 0.000000e+00
-2.352000e+00 1.282500e-01 0.000000e+00
-2.688000e+00 1.923750e-01 0.000000e+00
-2.604000e+00 1.923750e-01 0.000000e+00
-2.520000e+00 1.923750e-01 0.000000e+00
-2.436000e+00 1.923750e-01 0.000000e+00
-2.352000e+00 1.923750e-01 0.000000e+00
-2.688000e+00 2.565000e-01 0.000000e+00
-2.604000e+00 2.565000e-01 0.000000e+00
-2.520000e+00 2.565000e-01 0.000000e+00
-2.436000e+00 2.565000e-01 0.000000e+00
-2.352000e+00 2.565000e-01 0.000000e+00
-2.352000e+00 0.000000e+00 0.000000e+00
-2.268000e+00 0.000000e+00 0.000000e+00
-2.184000e+00 0.000000e+00 0.000000e+00
-2.100000e+00 0.000000e+00 0.000000e+00
-2.016000e+00 0.000000e+00 0.000000e+00
-2.352000e+00 6.412500e-02 0.000000e+00
-2.268000e+00 6.412500e-02 0.000000e+00
-2.184000e+00 6.412500e-02 0.000000e+00
-2.100000e+00 6.412500e-02 0.000000e+00
-2.016000e+00 6.412500e-02 0.000000e+00
-2.352000e+00 1.282500e-01 0.000000e+00
-2.268000e+00 1.282500e-01 0.000000e+00
-2.184000e+00 1.282500e-01 0.000000e+00
-2.100000e+00 1.282500e-01 0.000000e+00
-2.016000e+00 1.282500e-01 0.000000e+00
-2.352000e+00 1.923750e-01 0.000000e+00
-2.268000e+00 1.923750e-01 0.000000e+00
-2.184000e+00 1.923750e-01 0.000000e+00
-2.100000e+00 1.923750e-01 0.000000e+00
-2.016000e+00 1.923750e-01 0.000000e+00
-2.352000e+00 2.565000e-01 0.000000e+00
-2.268000e+00 2.565000e-01 0.000000e+00
-2.184000e+00 2.565000e-01 0.000000e+00
-2.100000e+00 2.565000e-01 0.000000e+00
-2.016000e+00 2.565000e-01 0.000000e+00
-2.016000e+00 0.000000e+00 0.000000e+00
-1.932000e+00 0.000000e+00 0.000000e+00
-1.848000e+00 0.000000e+00 0.000000e+00
-1.764000e+00 0.000000e+00 0.000000e+00
-1.680000e+00 0.000000e+00 0.000000e+00
-2.016000e+00 6.412500e-02 0.000000e+00
-1.932000e+00 6.412500e-02 0.000000e+00
-1.848000e+00 6.412500e-02 0.000000e+00
-1.764000e+00 6.412500e-02 0.000000e+00
-1.680000e+00 6.412500e-02 0.000000e+00
-2.016000e+00 1.282500e-01 0.000000e+00
-1.932000e+00 1.282500e-01 0.000000e+00
-1.848000e+00 1.282500e-01 0.000000e+00
-1.764000e+00 1.282500e-01 0.000000e+00
-1.680000e+00 1.282500e-01 0.000000e+00
-2.016000e+00 1.923750e-01 0.000000e+00
-1.932000e+00 1.923750e-01 0.000000e+00
-1.848000e+00 1.923750e-01 0.000000e+00
-1.764000e+00 1.923750e-01 0.000000e+00
-1.680000e+00 1.923750e-01 0.000000e+00
-2.016000e+00 2.565000e-01 0.000000e+00
-1.932000e+00 2.565000e-01 0.000000e+00
-1.848000e+00 2.565000e-01 0.000000e+00
-1.764000e+00 2.565000e-01 0.000000e+00
-1.680000e+00 2.565000e-01 0.000000e+00
-1.680000e+00 0.000000e+00 0.000000e+00
-1.596000e+00 0.000000e+00 0.000000e+00
-1.512000e+00 0.000000e+00 0.000000e+00
-1.428000e+00 0.000000e+00 0.000000e+00
-1.344000e+00 0.000000e+00 0.000000e+00
-1.680000e+00 6.412500e-02 0.000000e+00
-1.596000e+00 6.412500e-02 0.000000e+00
-1.512000e+00 6.412500e-02 0.000000e+00
-1.428000e+00 6.412500e-02 0.000000e+00
-1.344000e+00 6.412500e-02 0.000000e+00
-1.680000e+00 1.282500e-01 0.000000e+00
-1.596000e+00 1.282500e-01 0.000000e+00
-1.512000e+00 1.282500e-01 0.000000e+00
-1.428000e+00 1.282500e-01 0.000000e+00
-1.344000e+00 1.282500e-01 0.000000e+00
-1.680000e+00 1.923750e-01 0.000000e+00
-1.596000e+00 1.923750e-01 0.000000e+00
-1.512000e+00 1.923750e-01 0.000000e+00
-1.428000e+00 1.923750e-01 0.000000e+00
-1.344000e+00 1.923750e-01 0.000000e+00
-1.680000e+00 2.565000e-01 0.000000e+00
-1.596000e+00 2.565000e-01 0.000000e+00
-1.512000e+00 2.565000e-01 0.000000e+00
-1.428000e+00 2.565000e-01 0.000000e+00
-1.344000e+00 2.565000e-01 0.000000e+00
-1.344000e+00 0.000000e+00 0.000000e+00
-1.260000e+00 0.000000e+00 0.000000e+00
-1.176000e+00 0.000000e+00 0.000000e+00
-1.092000e+00 0.000000e+00 0.000000e+00
-1.008000e+00 0.000000e+00 0.000000e+00
-1.344000e+00 6.412500e-02 0.000000e+00
-1.260000e+00 6.412500e-02 0.000000e+00
-1.176000e+00 6.412500e-02 0.000000e+00
-1.092000e+00 6.412500e-02 0.000000e+00
-1.008000e+00 6.412500e-02 0.000000e+00
-1.344000e+00 1.282500e-01 0.000000e+00
-1.260000e+00 1.282500e-01 0.000000e+00
-1.176000e+00 1.282500e-01 0.000000e+00
-1.092000e+00 1.282500e-01 0.000000e+00
-1.008000e+00 1.282500e-01 0.000000e+00
-1.344000e+00 1.923750e-01 0.000000e+00
-1.260000e+00 1.923750e-01 0.000000e+00
-1.176000e+00 1.923750e-01 0.000000e+00
-1.092000e+00 1.923750e-01 0.000000e+00
-1.008000e+00 1.923750e-01 0.000000e+00
-1.344000e+00 2.565000e-01 0.000000e+00
-1.260000e+00 2.565000e-01 0.000000e+00
-1.176000e+00 2.565000e-01 0.000000e+00
-1.092000e+00 2.565000e-01 0.000000e+00
-1.008000e+00 2.565000e-01 0.000000e+00
-1.008000e+00 0.000000e+00 0.000000e+00
-9.240000e-01 0.000000e+00 0.000000e+00
-8.400000e-01 0.000000e+00 0.000000e+00
-7.560000e-01 0.000000e+00 0.000000e+00
-6.720000e-01 0.000000e+00 0.000000e+00
-1.008000e+00 6.412500e-02 0.000000e+00
-9.240000e-01 6.412500e-02 0.000000e+00
-8.400000e-01 6.412500e-02 0.000000e+00
-7.560000e-01 6.412500e-02 0.000000e+00
-6.720000e-01 6.412500e-02 0.000000e+00
-1.008000e+00 1.282500e-01 0.000000e+00
-9.240000e-01 1.282500e-01 0.000000e+00
-8.400000e-01 1.282500e-01 0.000000e+00
-7.560000e-01 1.282500e-01 0.000000e+00
-6.720000e-01 1.282500e-01 0.000000e+00
-1.008000e+00 1.923750e-01 0.000000e+00
-9.240000e-01 1.923750e-01 0.000000e+00
-8.400000e-01 1.923750e-01 0.000000e+00
-7.560000e-01 1.923750e-01 0.000000e+00
-6.720000e-01 1.923750e-01 0.000000e+00
-1.008000e+00 2.565000e-01 0.000000e+00
-9.240000e-01 2.565000e-01 0.000000e+00
-8.400000e-01 2.565000e-01 0.000000e+00
-7.560000e-01 2.565000e-01 0.000000e+00
-6.720000e-01 2.565000e-01 0.000000e+00
-6.720000e-01 0.000000e+00 0.000000e+00
-5.880000e-01 0.000000e+00 0.000000e+00
-5.040000e-01 0.000000e+00 0.000000e+00
-4.200000e-01 0.000000e+00 0.000000e+00
-3.360000e-01 0.000000e+00 0.000000e+00
-6.720000e-01 6.412500e-02 0.000000e+00
-5.880000e-01 6.412500e-02 0.000000e+00
-5.040000e-01 6.412500e-02 0.000000e+00
-4.200000e-01 6.412500e-02 0.000000e+00
-3.360000e-01 6.412500e-02 0.000000e+00
-6.720000e-01 1.282500e-01 0.000000e+00
-5.880000e-01 1.282500e-01 0.000000e+00
-5.040000e-01 1.282500e-01 0.000000e+00
-4.200000e-01 1.282500e-01 0.000000e+00
-3.360000e-01 1.282500e-01 0.000000e+00
-6.720000e-01 1.923750e-01 0.000000e+00
-5.880000e-01 1.923750e-01 0.000000e+00
-5.040000e-01 1.923750e-01 0.000000e+00
-4.200000e-01 1.923750e-01 0.000000e+00
-3.360000e-01 1.923750e-01 0.000000e+00
-6.720000e-01 2.565000e-01 0.000000e+00
-5.880000e-01 2.565000e-01 0.000000e+00
-5.040000e-01 2.565000e-01 0.000000e+00
-4.200000e-01 2.565000e-01 0.000000e+00
-3.360000e-01 2.565000e-01 0.000000e+00
-3.360000e-01 0.000000e+00 0.000000e+00
-2.520000e-01 0.000000e+00 0.000000e+00
-1.680000e-01 0.000000e+00 0.000000e+00
-8.400000e-02 0.000000e+00 0.000000e+00
-4.440890e-16 0.000000e+00 0.000000e+00
-3.360000e-01 6.412500e-02 0.000000e+00
-2.520000e-01 6.412500e-02 0.000000e+00
-1.680000e-01 6.412500e-02 0.000000e+00
-8.400000e-02 6.412500e-02 0.000000e+00
-4.440890e-16 6.412500e-02 0.000000e+00
-3.360000e-01 1.282500e-01 0.000000e+00
-2.520000e-01 1.282500e-01 0.000000e+00
-1.680000e-01 1.282500e-01 0.000000e+00
-8.400000e-02 1.282500e-01 0.000000e+00
-4.440890e-16 1.282500e-01 0.000000e+00
-3.360000e-01 1.923750e-01 0.000000e+00
-2.520000e-01 1.923750e-01 0.000000e+00
-1.680000e-01 1.923750e-01 0.000000e+00
[...]
<PointData>
<DataArray type="Float32" Name="V1" format="ascii">
0.000000e+00
0.000000e+00
0.000000e+00
0.000000e+00
0.000000e+00
6.347820e-02
6.228940e-02
6.217420e-02
6.313240e-02
6.516420e-02
1.013490e-01
1.014170e-01
1.026140e-01
1.049410e-01
1.083970e-01
1.136110e-01
1.173820e-01
1.213210e-01
1.254260e-01
1.296990e-01
1.002660e-01
1.101860e-01
1.182930e-01
1.245880e-01
1.290690e-01
0.000000e+00
0.000000e+00
0.000000e+00
0.000000e+00
0.000000e+00
6.516420e-02
6.623520e-02
6.827840e-02
7.129390e-02
7.528160e-02
1.083970e-01
1.108560e-01
1.146710e-01
1.198420e-01
1.263700e-01
1.296990e-01
1.338610e-01
1.391770e-01
1.456450e-01
1.532660e-01
1.290690e-01
1.352520e-01
1.417970e-01
1.487020e-01
1.559680e-01
0.000000e+00
0.000000e+00
0.000000e+00
0.000000e+00
0.000000e+00
7.528160e-02
7.907780e-02
8.333560e-02
8.805510e-02
9.323620e-02
1.263700e-01
1.326890e-01
1.398010e-01
1.477060e-01
1.564050e-01
1.532660e-01
1.608340e-01
1.693970e-01
1.789540e-01
1.895050e-01
1.559680e-01
1.635130e-01
1.721230e-01
1.817970e-01
1.925370e-01
0.000000e+00
0.000000e+00
0.000000e+00
0.000000e+00
0.000000e+00
9.323620e-02
9.857550e-02
1.047640e-01
1.118030e-01
1.196910e-01
1.564050e-01
1.653540e-01
1.756800e-01
1.873800e-01
2.004570e-01
1.895050e-01
2.003370e-01
2.127460e-01
2.267320e-01
2.422960e-01
1.925370e-01
2.035220e-01
2.159630e-01
2.298590e-01
2.452110e-01
0.000000e+00
0.000000e+00
0.000000e+00
0.000000e+00
0.000000e+00
1.196910e-01
1.274140e-01
1.366640e-01
1.474440e-01
1.597510e-01
2.004570e-01
2.133020e-01
2.286120e-01
2.463860e-01
2.666250e-01
2.422960e-01
2.576650e-01
2.758420e-01
2.968280e-01
3.206210e-01
2.452110e-01
2.605030e-01
2.783550e-01
2.987680e-01
3.217410e-01
0.000000e+00
0.000000e+00
0.000000e+00
0.000000e+00
0.000000e+00
1.597510e-01
1.710600e-01
1.851420e-01
2.019970e-01
2.216250e-01
2.666250e-01
2.853240e-01
3.084430e-01
3.359840e-01
3.679450e-01
3.206210e-01
3.427910e-01
3.699040e-01
4.019590e-01
4.389580e-01
3.217410e-01
3.434620e-01
3.695230e-01
3.999240e-01
4.346650e-01
0.000000e+00
0.000000e+00
0.000000e+00
0.000000e+00
0.000000e+00
2.216250e-01
2.396290e-01
2.613390e-01
2.867550e-01
3.158770e-01
3.679450e-01
3.974700e-01
4.328390e-01
4.740490e-01
5.211030e-01
4.389580e-01
4.735240e-01
5.144990e-01
5.618830e-01
6.156760e-01
4.346650e-01
4.677890e-01
5.063190e-01
5.502550e-01
5.995960e-01
0.000000e+00
0.000000e+00
0.000000e+00
0.000000e+00
0.000000e+00
3.158770e-01
3.476070e-01
3.803490e-01
4.141050e-01
4.488740e-01
5.211030e-01
5.727010e-01
6.259400e-01
6.808210e-01
7.373420e-01
6.156760e-01
6.752820e-01
7.367730e-01
8.001480e-01
8.654060e-01
5.995960e-01
6.553510e-01
7.128480e-01
7.720860e-01
8.330650e-01
0.000000e+00
0.000000e+00
0.000000e+00
0.000000e+00
0.000000e+00
4.488740e-01
4.990740e-01
5.420410e-01
5.777750e-01
6.062750e-01
7.373420e-01
8.191200e-01
8.901240e-01
9.503540e-01
9.998090e-01
8.654060e-01
9.601390e-01
1.044250e+00
1.117740e+00
1.180600e+00
8.330650e-01
9.221300e-01
1.004420e+00
1.079930e+00
1.148660e+00
0.000000e+00
0.000000e+00
0.000000e+00
0.000000e+00
0.000000e+00
6.062750e-01
6.490540e-01
6.798540e-01
6.986750e-01
7.055170e-01
9.998090e-01
1.072140e+00
1.126720e+00
1.163560e+00
1.182660e+00
1.180600e+00
1.269250e+00
1.340600e+00
1.394650e+00
1.431420e+00
1.148660e+00
1.240390e+00
1.321490e+00
1.391960e+00
1.451800e+00
0.000000e+00
0.000000e+00
0.000000e+00
0.000000e+00
0.000000e+00
7.055170e-01
6.871930e-01
6.670560e-01
6.451050e-01
6.213410e-01
1.182660e+00
1.159040e+00
1.131360e+00
1.099600e+00
1.063770e+00
1.431420e+00
1.415550e+00
1.392900e+00
1.363490e+00
1.327300e+00
1.451800e+00
1.456700e+00
1.451690e+00
1.436760e+00
1.411920e+00
0.000000e+00
0.000000e+00
0.000000e+00
0.000000e+00
0.000000e+00
6.213410e-01
5.677440e-01
5.206040e-01
4.799200e-01
4.456930e-01
1.063770e+00
9.772620e-01
8.989130e-01
8.287280e-01
7.667080e-01
1.327300e+00
1.228550e+00
1.134930e+00
1.046420e+00
9.630420e-01
1.411920e+00
1.321620e+00
1.228640e+00
1.133010e+00
1.034700e+00
0.000000e+00
0.000000e+00
0.000000e+00
0.000000e+00
0.000000e+00
4.456930e-01
4.104870e-01
3.770000e-01
3.452330e-01
3.151860e-01
7.667080e-01
7.056510e-01
6.473390e-01
5.917710e-01
5.389480e-01
9.630420e-01
8.854940e-01
8.110180e-01
7.396160e-01
6.712860e-01
1.034700e+00
9.500150e-01
8.680370e-01
7.887660e-01
7.122010e-01
0.000000e+00
0.000000e+00
0.000000e+00
0.000000e+00
0.000000e+00
3.151860e-01
2.919590e-01
2.694280e-01
2.475930e-01
2.264540e-01
5.389480e-01
4.979460e-01
4.585610e-01
4.207910e-01
3.846370e-01
6.712860e-01
6.179620e-01
5.673980e-01
5.195940e-01
4.745510e-01
7.122010e-01
6.520060e-01
5.959400e-01
5.440020e-01
4.961940e-01
0.000000e+00
0.000000e+00
0.000000e+00
0.000000e+00
0.000000e+00
2.264540e-01
2.097740e-01
1.940790e-01
1.793680e-01
1.656420e-01
3.846370e-01
3.557290e-01
3.286940e-01
3.035330e-01
2.802450e-01
4.745510e-01
4.378630e-01
4.038440e-01
3.724930e-01
3.438100e-01
4.961940e-01
4.561780e-01
4.195300e-01
3.862490e-01
3.563350e-01
0.000000e+00
0.000000e+00
0.000000e+00
0.000000e+00
0.000000e+00
1.656420e-01
1.541850e-01
1.434790e-01
1.335250e-01
1.243230e-01
2.802450e-01
2.606500e-01
2.424040e-01
2.255050e-01
2.099550e-01
3.438100e-01
3.193970e-01
2.967730e-01
2.759390e-01
2.568950e-01
3.563350e-01
3.304240e-01
3.065880e-01
2.848280e-01
2.651440e-01
0.000000e+00
0.000000e+00
0.000000e+00
0.000000e+00
0.000000e+00
1.243230e-01
1.163740e-01
1.089460e-01
1.020410e-01
9.565730e-02
2.099550e-01
1.964510e-01
1.838630e-01
1.721910e-01
1.614360e-01
2.568950e-01
2.402310e-01
2.247500e-01
2.104520e-01
1.973360e-01
2.651440e-01
2.477150e-01
2.316070e-01
2.168220e-01
2.033580e-01
0.000000e+00
0.000000e+00
0.000000e+00
0.000000e+00
0.000000e+00
9.565730e-02
8.999800e-02
8.468350e-02
7.971400e-02
7.508930e-02
1.614360e-01
1.518650e-01
1.428950e-01
1.345270e-01
1.267590e-01
1.973360e-01
1.856010e-01
1.746350e-01
1.644380e-01
1.550090e-01
2.033580e-01
1.912070e-01
1.799040e-01
1.694480e-01
1.598400e-01
0.000000e+00
0.000000e+00
0.000000e+00
0.000000e+00
0.000000e+00
7.508930e-02
7.100980e-02
6.704030e-02
6.318090e-02
5.943140e-02
1.267590e-01
1.198500e-01
1.131840e-01
1.067630e-01
1.005850e-01
1.550090e-01
1.465200e-01
1.384320e-01
1.307460e-01
1.234610e-01
1.598400e-01
1.510190e-01
1.427830e-01
1.351290e-01
1.280600e-01
0.000000e+00
0.000000e+00
0.000000e+00
0.000000e+00
0.000000e+00
5.943140e-02
5.654340e-02
5.323300e-02
4.950010e-02
4.534470e-02
1.005850e-01
9.554290e-02
9.010120e-02
8.425990e-02
7.801920e-02
1.234610e-01
1.169990e-01
1.106050e-01
1.042800e-01
9.802360e-02
1.280600e-01
1.209100e-01
1.147430e-01
1.095590e-01
1.053580e-01
1.002660e-01
1.101860e-01
1.182930e-01
1.245880e-01
1.290690e-01
9.945850e-02
1.061920e-01
1.122480e-01
1.176290e-01
1.223340e-01
9.848610e-02
1.032470e-01
1.080300e-01
1.128340e-01
1.176610e-01
9.734850e-02
1.013530e-01
1.056380e-01
1.102040e-01
1.150510e-01
9.604590e-02
1.005080e-01
1.050720e-01
1.097380e-01
1.145050e-01
1.290690e-01
1.352520e-01
1.417970e-01
1.487020e-01
1.559680e-01
1.223340e-01
1.281210e-01
1.342490e-01
1.407190e-01
1.475300e-01
1.176610e-01
1.231700e-01
1.290110e-01
1.351830e-01
1.416870e-01
1.150510e-01
1.204000e-01
1.260810e-01
1.320940e-01
1.384400e-01
1.145050e-01
1.198110e-01
1.254600e-01
1.314530e-01
1.377880e-01
1.559680e-01
1.635130e-01
1.721230e-01
1.817970e-01
1.925370e-01
1.475300e-01
1.546590e-01
1.627630e-01
1.718400e-01
1.818910e-01
1.416870e-01
1.485370e-01
1.562790e-01
1.649130e-01
1.744380e-01
1.384400e-01
1.451460e-01
1.526710e-01
1.610150e-01
1.701770e-01
1.377880e-01
1.444860e-01
1.519390e-01
1.601470e-01
1.691090e-01
1.925370e-01
2.035220e-01
2.159630e-01
2.298590e-01
2.452110e-01
1.818910e-01
1.921360e-01
2.037830e-01
2.168330e-01
2.312840e-01
1.744380e-01
1.841200e-01
1.951550e-01
2.075430e-01
2.212830e-01
1.701770e-01
1.794740e-01
1.900790e-01
2.019900e-01
2.152080e-01
1.691090e-01
1.781980e-01
1.885530e-01
2.001740e-01
2.130590e-01
2.452110e-01
2.605030e-01
2.783550e-01
2.987680e-01
3.217410e-01
2.312840e-01
2.455420e-01
2.622960e-01
2.815450e-01
3.032890e-01
2.212830e-01
2.347260e-01
2.505930e-01
2.688840e-01
2.895990e-01
2.152080e-01
2.280540e-01
2.432470e-01
2.607860e-01
2.806710e-01
2.130590e-01
2.255270e-01
2.402570e-01
2.572500e-01
2.765040e-01
3.217410e-01
3.434620e-01
3.695230e-01
3.999240e-01
4.346650e-01
3.032890e-01
3.234390e-01
3.480350e-01
3.770790e-01
4.105690e-01
2.895990e-01
3.084380e-01
3.317800e-01
3.596240e-01
3.919710e-01
2.806710e-01
2.984600e-01
3.207560e-01
3.475590e-01
3.788690e-01
2.765040e-01
2.935050e-01
3.149650e-01
3.408850e-01
3.712640e-01
4.346650e-01
4.677890e-01
5.063190e-01
5.502550e-01
5.995960e-01
4.105690e-01
4.413170e-01
4.782170e-01
5.212690e-01
5.704730e-01
3.919710e-01
4.205240e-01
4.558760e-01
4.980280e-01
5.469780e-01
3.788690e-01
4.054110e-01
4.392980e-01
4.805320e-01
5.291110e-01
3.712640e-01
3.959770e-01
4.284820e-01
4.687800e-01
5.168700e-01
5.995960e-01
6.553510e-01
7.128480e-01
7.720860e-01
8.330650e-01
5.704730e-01
6.249390e-01
6.820030e-01
7.416650e-01
8.039240e-01
5.469780e-01
5.997300e-01
6.560390e-01
7.159070e-01
7.793330e-01
5.291110e-01
5.797220e-01
6.349560e-01
6.948120e-01
7.592900e-01
5.168700e-01
5.649170e-01
6.187530e-01
6.783800e-01
7.437970e-01
8.330650e-01
9.221300e-01
1.004420e+00
1.079930e+00
1.148660e+00
8.039240e-01
8.975560e-01
9.837420e-01
1.062480e+00
1.133770e+00
7.793330e-01
8.777970e-01
9.684270e-01
1.051220e+00
1.126190e+00
7.592900e-01
8.628510e-01
9.584740e-01
1.046160e+00
1.125910e+00
7.437970e-01
8.527180e-01
9.538800e-01
1.047280e+00
1.132930e+00
1.148660e+00
1.240390e+00
1.321490e+00
1.391960e+00
1.451800e+00
1.133770e+00
1.237090e+00
1.325670e+00
1.399520e+00
1.458630e+00
1.126190e+00
1.244070e+00
1.344380e+00
1.427110e+00
1.492270e+00
1.125910e+00
1.261330e+00
1.377610e+00
1.474740e+00
1.552730e+00
1.132930e+00
1.288870e+00
1.425360e+00
1.542400e+00
1.639990e+00
1.451800e+00
1.456700e+00
1.451690e+00
1.436760e+00
1.411920e+00
1.458630e+00
1.453200e+00
1.437890e+00
1.412700e+00
1.377620e+00
1.492270e+00
1.477610e+00
1.452560e+00
1.417120e+00
1.371300e+00
1.552730e+00
1.529910e+00
1.495680e+00
1.450030e+00
1.392970e+00
1.639990e+00
1.610120e+00
1.567270e+00
1.511440e+00
1.442630e+00
1.411920e+00
1.321620e+00
1.228640e+00
1.133010e+00
1.034700e+00
1.377620e+00
1.269510e+00
1.164670e+00
1.063110e+00
9.648120e-01
1.371300e+00
1.241380e+00
1.120750e+00
1.009420e+00
9.073760e-01
1.392970e+00
1.237230e+00
1.096880e+00
9.719350e-01
8.623900e-01
1.442630e+00
1.257050e+00
1.093060e+00
9.506620e-01
8.298540e-01
1.034700e+00
9.500150e-01
8.680370e-01
7.887660e-01
7.122010e-01
9.648120e-01
8.871880e-01
8.108360e-01
7.357560e-01
6.619470e-01
9.073760e-01
8.363640e-01
7.650510e-01
6.934370e-01
6.215230e-01
8.623900e-01
7.975410e-01
7.306810e-01
6.618100e-01
5.909290e-01
8.298540e-01
7.707200e-01
7.077270e-01
6.408750e-01
5.701660e-01
7.122010e-01
6.520060e-01
5.959400e-01
5.440020e-01
4.961940e-01
6.619470e-01
6.061780e-01
5.542170e-01
5.060660e-01
4.617230e-01
6.215230e-01
5.694330e-01
5.209300e-01
4.760160e-01
4.346880e-01
5.909290e-01
5.417710e-01
4.960790e-01
4.538520e-01
4.150910e-01
5.701660e-01
5.231930e-01
4.796630e-01
4.395750e-01
4.029300e-01
4.961940e-01
4.561780e-01
4.195300e-01
3.862490e-01
3.563350e-01
4.617230e-01
4.250470e-01
3.913660e-01
3.606790e-01
3.329880e-01
4.346880e-01
4.008070e-01
3.696060e-01
3.410870e-01
3.152480e-01
4.150910e-01
3.834580e-01
3.542510e-01
3.274710e-01
3.031170e-01
4.029300e-01
3.730000e-01
3.453010e-01
3.198320e-01
2.965930e-01
3.563350e-01
3.304240e-01
3.065880e-01
2.848280e-01
2.651440e-01
3.329880e-01
3.091940e-01
2.872350e-01
2.671130e-01
2.488260e-01
3.152480e-01
2.931880e-01
2.727620e-01
2.539720e-01
2.368160e-01
3.031170e-01
2.824060e-01
2.631690e-01
2.454050e-01
2.291150e-01
2.965930e-01
2.768480e-01
2.584550e-01
2.414130e-01
2.257220e-01
2.651440e-01
2.477150e-01
2.316070e-01
2.168220e-01
2.033580e-01
2.488260e-01
2.326890e-01
2.177480e-01
2.040040e-01
1.914560e-01
2.368160e-01
2.217090e-01
2.076960e-01
1.947780e-01
1.829550e-01
2.291150e-01
2.147740e-01
2.014510e-01
1.891450e-01
1.778560e-01
2.257220e-01
2.118860e-01
1.990130e-01
1.871040e-01
1.761570e-01
2.033580e-01
1.912070e-01
1.799040e-01
1.694480e-01
1.598400e-01
1.914560e-01
1.801380e-01
1.695960e-01
1.598290e-01
1.508380e-01
1.829550e-01
1.722850e-01
1.623340e-01
1.531040e-01
1.445930e-01
1.778560e-01
1.676460e-01
1.581180e-01
1.492720e-01
1.411070e-01
1.761570e-01
1.662230e-01
1.569480e-01
1.483340e-01
1.403780e-01
1.598400e-01
1.510190e-01
1.427830e-01
1.351290e-01
1.280600e-01
1.508380e-01
1.425900e-01
1.348770e-01
1.277010e-01
1.210600e-01
1.445930e-01
1.367770e-01
1.294670e-01
1.226630e-01
1.163640e-01
1.411070e-01
1.335830e-01
1.265530e-01
1.200150e-01
1.139700e-01
1.403780e-01
1.330070e-01
1.261330e-01
1.197570e-01
1.138800e-01
1.280600e-01
1.209100e-01
1.147430e-01
1.095590e-01
1.053580e-01
1.210600e-01
1.145470e-01
1.087770e-01
1.037520e-01
9.947070e-02
1.163640e-01
1.103330e-01
1.048630e-01
9.995370e-02
9.560530e-02
1.139700e-01
1.082690e-01
1.030000e-01
9.816450e-02
9.376160e-02
1.138800e-01
1.083540e-01
1.031890e-01
9.838410e-02
9.393940e-02
9.604590e-02
1.005080e-01
1.050720e-01
1.097380e-01
1.145050e-01
9.458900e-02
9.876900e-02
1.031080e-01
1.076070e-01
1.122650e-01
9.299440e-02
9.693820e-02
1.010740e-01
1.054030e-01
1.099240e-01
9.126190e-02
9.501600e-02
9.897040e-02
1.031250e-01
1.074800e-01
8.939170e-02
9.300220e-02
9.679640e-02
1.007740e-01
1.049350e-01
1.145050e-01
1.198110e-01
1.254600e-01
1.314530e-01
1.377880e-01
1.122650e-01
1.173510e-01
1.227870e-01
1.285730e-01
1.347100e-01
1.099240e-01
1.147910e-01
1.200090e-01
1.255760e-01
1.314940e-01
1.074800e-01
1.121320e-01
1.171260e-01
1.224630e-01
1.281410e-01
1.049350e-01
1.093740e-01
1.141400e-01
1.192320e-01
1.246500e-01
1.377880e-01
1.444860e-01
1.519390e-01
1.601470e-01
1.691090e-01
1.347100e-01
1.411530e-01
1.483020e-01
1.561590e-01
1.647210e-01
1.314940e-01
1.376670e-01
1.444970e-01
1.519860e-01
1.601340e-01
1.281410e-01
1.340280e-01
1.405240e-01
1.476300e-01
1.553470e-01
1.246500e-01
1.302360e-01
1.363820e-01
1.430900e-01
1.503600e-01
1.691090e-01
1.781980e-01
1.885530e-01
2.001740e-01
2.130590e-01
1.647210e-01
1.733560e-01
1.831830e-01
1.942030e-01
2.064140e-01
1.601340e-01
1.683000e-01
1.775800e-01
1.879750e-01
1.994840e-01
1.553470e-01
1.630300e-01
1.717450e-01
1.814910e-01
1.922700e-01
1.503600e-01
1.575450e-01
1.656760e-01
1.747510e-01
1.847710e-01
2.130590e-01
2.255270e-01
2.402570e-01
2.572500e-01
2.765040e-01
2.064140e-01
2.180960e-01
2.319330e-01
2.479240e-01
2.660720e-01
1.994840e-01
2.103610e-01
2.232730e-01
2.382180e-01
2.551980e-01
1.922700e-01
2.023240e-01
2.142780e-01
2.281310e-01
2.438830e-01
1.847710e-01
1.939840e-01
2.049480e-01
2.176620e-01
2.321270e-01
2.765040e-01
2.935050e-01
3.149650e-01
3.408850e-01
3.712640e-01
2.660720e-01
2.816380e-01
3.016190e-01
3.260160e-01
3.548290e-01
2.551980e-01
2.693200e-01
2.877530e-01
3.104950e-01
3.375460e-01
2.438830e-01
2.565520e-01
2.733640e-01
2.943200e-01
3.194170e-01
2.321270e-01
2.433340e-01
2.584550e-01
2.774910e-01
3.004420e-01
3.712640e-01
3.959770e-01
4.284820e-01
4.687800e-01
5.168700e-01
3.548290e-01
3.759190e-01
4.059650e-01
4.449670e-01
4.929260e-01
3.375460e-01
3.550780e-01
3.824790e-01
4.197500e-01
4.668910e-01
3.194170e-01
3.334550e-01
3.580260e-01
3.931290e-01
4.387660e-01
3.004420e-01
3.110500e-01
3.326040e-01
3.651040e-01
4.085510e-01
5.168700e-01
5.649170e-01
6.187530e-01
6.783800e-01
7.437970e-01
4.929260e-01
5.341250e-01
5.846310e-01
6.444440e-01
7.135650e-01
4.668910e-01
5.003500e-01
5.465200e-01
6.054010e-01
6.769930e-01
4.387660e-01
4.635930e-01
5.044210e-01
5.612500e-01
6.340810e-01
4.085510e-01
4.238540e-01
4.583340e-01
5.119930e-01
5.848280e-01
7.437970e-01
8.527180e-01
9.538800e-01
1.047280e+00
1.132930e+00
7.135650e-01
8.282870e-01
9.336860e-01
1.029760e+00
1.116520e+00
6.769930e-01
7.932530e-01
8.967650e-01
9.875300e-01
1.065550e+00
6.340810e-01
7.476180e-01
8.431200e-01
9.205860e-01
9.800170e-01
5.848280e-01
6.913810e-01
7.727490e-01
8.289320e-01
8.599300e-01
1.132930e+00
1.288870e+00
1.425360e+00
1.542400e+00
1.639990e+00
1.116520e+00
1.301990e+00
1.465300e+00
1.606450e+00
1.725450e+00
1.065550e+00
1.275780e+00
1.457900e+00
1.611910e+00
1.737790e+00
9.800170e-01
1.210260e+00
1.403170e+00
1.558760e+00
1.677030e+00
8.599300e-01
1.105410e+00
1.301110e+00
1.447020e+00
1.543150e+00
1.639990e+00
1.610120e+00
1.567270e+00
1.511440e+00
1.442630e+00
1.725450e+00
1.675590e+00
1.616020e+00
1.546740e+00
1.467760e+00
1.737790e+00
1.664140e+00
1.591510e+00
1.519900e+00
1.449330e+00
1.677030e+00
1.575750e+00
1.493720e+00
1.430920e+00
1.387360e+00
1.543150e+00
1.410440e+00
1.322650e+00
1.279780e+00
1.281830e+00
1.442630e+00
1.257050e+00
1.093060e+00
9.506620e-01
8.298540e-01
1.467760e+00
1.262410e+00
1.080710e+00
9.226540e-01
7.882370e-01
1.449330e+00
1.231730e+00
1.039090e+00
8.714120e-01
7.287060e-01
1.387360e+00
1.164990e+00
9.681790e-01
7.969370e-01
6.512600e-01
1.281830e+00
1.062190e+00
8.679930e-01
6.992280e-01
5.559000e-01
8.298540e-01
7.707200e-01
7.077270e-01
6.408750e-01
5.701660e-01
7.882370e-01
7.383500e-01
6.811830e-01
6.167350e-01
5.450080e-01
7.287060e-01
6.935360e-01
6.460460e-01
5.862370e-01
5.141090e-01
6.512600e-01
6.362760e-01
6.023160e-01
5.493800e-01
4.774690e-01
5.559000e-01
5.665710e-01
5.499920e-01
5.061650e-01
4.350880e-01
5.701660e-01
5.231930e-01
4.796630e-01
4.395750e-01
4.029300e-01
5.450080e-01
4.993130e-01
4.574570e-01
4.194400e-01
3.852620e-01
5.141090e-01
4.708510e-01
4.316100e-01
3.963840e-01
3.651740e-01
4.774690e-01
4.378090e-01
4.021220e-01
3.704080e-01
3.426670e-01
4.350880e-01
4.001850e-01
3.689930e-01
3.415120e-01
3.177410e-01
4.029300e-01
3.730000e-01
3.453010e-01
3.198320e-01
2.965930e-01
3.852620e-01
3.574850e-01
3.316280e-01
3.076930e-01
2.856770e-01
3.651740e-01
3.399550e-01
3.162750e-01
2.941360e-01
2.735370e-01
3.426670e-01
3.204100e-01
2.992410e-01
2.791620e-01
2.601710e-01
3.177410e-01
2.988500e-01
2.805260e-01
2.627700e-01
2.455820e-01
2.965930e-01
2.768480e-01
2.584550e-01
2.414130e-01
2.257220e-01
2.856770e-01
2.671520e-01
2.498400e-01
2.337400e-01
2.188540e-01
2.735370e-01
2.563930e-01
2.403030e-01
2.252650e-01
2.112810e-01
2.601710e-01
2.445730e-01
2.298450e-01
2.159880e-01
2.030020e-01
2.455820e-01
2.316900e-01
2.184650e-01
2.059080e-01
1.940180e-01
2.257220e-01
2.118860e-01
1.990130e-01
1.871040e-01
1.761570e-01
2.188540e-01
2.057550e-01
1.935370e-01
1.822010e-01
1.717460e-01
2.112810e-01
1.990010e-01
1.875100e-01
1.768100e-01
1.668990e-01
2.030020e-01
1.916240e-01
1.809340e-01
1.709310e-01
1.616170e-01
1.940180e-01
1.836250e-01
1.738070e-01
1.645650e-01
1.558990e-01
1.761570e-01
1.662230e-01
1.569480e-01
1.483340e-01
1.403780e-01
1.717460e-01
1.622560e-01
1.533850e-01
1.451320e-01
1.374980e-01
1.668990e-01
1.579000e-01
1.494720e-01
1.416170e-01
1.343340e-01
1.616170e-01
1.531540e-01
1.452110e-01
1.377890e-01
1.308860e-01
1.558990e-01
1.480190e-01
1.406020e-01
1.336470e-01
1.271530e-01
1.403780e-01
1.330070e-01
1.261330e-01
1.197570e-01
1.138800e-01
1.374980e-01
1.304140e-01
1.238060e-01
1.176720e-01
1.120150e-01
1.343340e-01
1.275660e-01
1.212450e-01
1.153720e-01
1.099470e-01
1.308860e-01
1.244610e-01
1.184510e-01
1.128570e-01
1.076780e-01
1.271530e-01
1.211000e-01
1.154240e-01
1.101260e-01
1.052070e-01
1.138800e-01
1.083540e-01
1.031890e-01
9.838410e-02
9.393940e-02
1.120150e-01
1.066890e-01
1.017070e-01
9.706630e-02
9.276840e-02
1.099470e-01
1.048290e-01
1.000400e-01
9.558100e-02
9.145230e-02
1.076780e-01
1.027720e-01
9.818860e-02
9.392830e-02
8.999110e-02
1.052070e-01
1.005190e-01
9.615300e-02
9.210820e-02
8.838480e-02
8.939170e-02
9.300220e-02
9.679640e-02
1.007740e-01
1.049350e-01
8.740010e-02
9.085590e-02
9.448810e-02
9.829680e-02
1.022820e-01
8.530680e-02
8.859710e-02
9.205620e-02
9.568410e-02
9.948080e-02
8.311190e-02
8.622580e-02
8.950040e-02
9.293590e-02
9.653220e-02
8.081530e-02
8.374200e-02
8.682100e-02
9.005240e-02
9.343610e-02
1.049350e-01
1.093740e-01
1.141400e-01
1.192320e-01
1.246500e-01
1.022820e-01
1.064880e-01
1.110040e-01