<?xml version="1.0"?>
<VTKFile type="UnstructuredGrid" version="0.1" byte_order="LittleEndian" compressor="vtkZLibDataCompressor">
<UnstructuredGrid>
<Piece NumberOfPoints="10000" NumberOfCells="6400">
<Points>
<DataArray type="Float32" NumberOfComponents="3" format="ascii">
-3.360000e+00 0.000000e+00 0.000000e+00
-3.276000e+00 0.000000e+00 0.000000e+00
-3.192000e+00 0.000000e+00 0.000000e+00
-3.108000e+00 0.000000e+00 0.000000e+00
-3.024000e+00 0.000000e+00 0.000000e+00
-3.360000e+00 6.412500e-02 0.000000e+00
-3.276000e+00 6.412500e-02 0.000000e+00
-3.192000e+00 6.412500e-02 0.000000e+00
-3.108000e+00 6.412500e-02 0.000000e+00
-3.024000e+00 6.412500e-02 0.000000e+00
-3.360000e+00 1.282500e-01 0.000000e+00
-3.276000e+00 1.282500e-01 0.000000e+00
-3.192000e+00 1.282500e-01 0.000000e+00
-3.108000e+00 1.282500e-01 0.000000e+00
-3.024000e+00 1.282500e-01 0.000000e+00
-3.360000e+00 1.923750e-01 0.000000e+00
-3.276000e+00 1.923750e-01 0.000000e+00
-3.192000e+00 1.923750e-01 0.000000e+00
-3.108000e+00 1.923750e-01 0.000000e+00
-3.024000e+00 1.923750e-01 0.000000e+00
-3.360000e+00 2.565000e-01 0.000000e+00
-3.276000e+00 2.565000e-01 0.000000e+00
-3.192000e+00 2.565000e-01 0.000000e+00
-3.108000e+00 2.565000e-01 0.000000e+00
-3.024000e+00 2.565000e-01 0.000000e+00
-3.024000e+00 0.000000e+00 0.000000e+00
-2.940000e+00 0.000000e+00 0.000000e+00
-2.856000e+00 0.000000e+00 0.000000e+00
-2.772000e+00 0.000000e+00 0.000000e+00
-2.688000e+00 0.000000e+00 0.000000e+00
-3.024000e+00 6.412500e-02 0.000000e+00
-2.940000e+00 6.412500e-02 0.000000e+00
-2.856000e+00 6.412500e-02 0.000000e+00
-2.772000e+00 6.412500e-02 0.000000e+00
-2.688000e+00 6.412500e-02 0.000000e+00
-3.024000e+00 1.282500e-01 0.000000e+00
-2.940000e+00 1.282500e-01 0.000000e+00
-2.856000e+00 1.282500e-01 0.000000e+00
-2.772000e+00 1.282500e-01 0.000000e+00
-2.688000e+00 1.282500e-01 0.000000e+00
-3.024000e+00 1.923750e-01 0.000000e+00
-2.940000e+00 1.923750e-01 0.000000e+00
-2.856000e+00 1.923750e-01 0.000000e+00
-2.772000e+00 1.923750e-01 0.000000e+00
-2.688000e+00 1.923750e-01 0.000000e+00
-3.024000e+00 2.565000e-01 0.000000e+00
-2.940000e+00 2.565000e-01 0.000000e+00
-2.856000e+00 2.565000e-01 0.000000e+00
-2.772000e+00 2.565000e-01 0.000000e+00
-2.688000e+00 2.565000e-01 0.000000e+00
-2.688000e+00 0.000000e+00 0.000000e+00
-2.604000e+00 0.000000e+00 0.000000e+00
-2.520000e+00 0.000000e+00 0.000000e+00
-2.436000e+00 0.000000e+00 0.000000e+00
-2.352000e+00 0.000000e+00 0.000000e+00
-2.688000e+00 6.412500e-02 0.000000e+00
-2.604000e+00 6.412500e-02 0.000000e+00
-2.520000e+00 6.412500e-02 0.000000e+00
-2.436000e+00 6.412500e-02 0.000000e+00
-2.352000e+00 6.412500e-02 0.000000e+00
-2.688000e+00 1.282500e-01 0.000000e+00
-2.604000e+00 1.282500e-01 0.000000e+00
-2.520000e+00 1.282500e-01 0.000000e+00
-2.436000e+00 1.282500e-01 0.000000e+00
-2.352000e+00 1.282500e-01 0.000000e+00
-2.688000e+00 1.923750e-01 0.000000e+00
-2.604000e+00 1.923750e-01 0.000000e+00
-2.520000e+00 1.923750e-01 0.000000e+00
-2.436000e+00 1.923750e-01 0.000000e+00
-2.352000e+00 1.923750e-01 0.000000e+00
-2.688000e+00 2.565000e-01 0.000000e+00
-2.604000e+00 2.565000e-01 0.000000e+00
-2.520000e+00 2.565000e-01 0.000000e+00
-2.436000e+00 2.565000e-01 0.000000e+00
-2.352000e+00 2.565000e-01 0.000000e+00
-2.352000e+00 0.000000e+00 0.000000e+00
-2.268000e+00 0.000000e+00 0.000000e+00
-2.184000e+00 0.000000e+00 0.000000e+00
-2.100000e+00 0.000000e+00 0.000000e+00
-2.016000e+00 0.000000e+00 0.000000e+00
-2.352000e+00 6.412500e-02 0.000000e+00
-2.268000e+00 6.412500e-02 0.000000e+00
-2.184000e+00 6.412500e-02 0.000000e+00
-2.100000e+00 6.412500e-02 0.000000e+00
-2.016000e+00 6.412500e-02 0.000000e+00
-2.352000e+00 1.282500e-01 0.000000e+00
-2.268000e+00 1.282500e-01 0.000000e+00
-2.184000e+00 1.282500e-01 0.000000e+00
-2.100000e+00 1.282500e-01 0.000000e+00
-2.016000e+00 1.282500e-01 0.000000e+00
-2.352000e+00 1.923750e-01 0.000000e+00
-2.268000e+00 1.923750e-01 0.000000e+00
-2.184000e+00 1.923750e-01 0.000000e+00
-2.100000e+00 1.923750e-01 0.000000e+00
-2.016000e+00 1.923750e-01 0.000000e+00
-2.352000e+00 2.565000e-01 0.000000e+00
-2.268000e+00 2.565000e-01 0.000000e+00
-2.184000e+00 2.565000e-01 0.000000e+00
-2.100000e+00 2.565000e-01 0.000000e+00
-2.016000e+00 2.565000e-01 0.000000e+00
-2.016000e+00 0.000000e+00 0.000000e+00
-1.932000e+00 0.000000e+00 0.000000e+00
-1.848000e+00 0.000000e+00 0.000000e+00
-1.764000e+00 0.000000e+00 0.000000e+00
-1.680000e+00 0.000000e+00 0.000000e+00
-2.016000e+00 6.412500e-02 0.000000e+00
-1.932000e+00 6.412500e-02 0.000000e+00
-1.848000e+00 6.412500e-02 0.000000e+00
-1.764000e+00 6.412500e-02 0.000000e+00
-1.680000e+00 6.412500e-02 0.000000e+00
-2.016000e+00 1.282500e-01 0.000000e+00
-1.932000e+00 1.282500e-01 0.000000e+00
-1.848000e+00 1.282500e-01 0.000000e+00
-1.764000e+00 1.282500e-01 0.000000e+00
-1.680000e+00 1.282500e-01 0.000000e+00
-2.016000e+00 1.923750e-01 0.000000e+00
-1.932000e+00 1.923750e-01 0.000000e+00
-1.848000e+00 1.923750e-01 0.000000e+00
-1.764000e+00 1.923750e-01 0.000000e+00
-1.680000e+00 1.923750e-01 0.000000e+00
-2.016000e+00 2.565000e-01 0.000000e+00
-1.932000e+00 2.565000e-01 0.000000e+00
-1.848000e+00 2.565000e-01 0.000000e+00
-1.764000e+00 2.565000e-01 0.000000e+00
-1.680000e+00 2.565000e-01 0.000000e+00
-1.680000e+00 0.000000e+00 0.000000e+00
-1.596000e+00 0.000000e+00 0.000000e+00
-1.512000e+00 0.000000e+00 0.000000e+00
-1.428000e+00 0.000000e+00 0.000000e+00
-1.344000e+00 0.000000e+00 0.000000e+00
-1.680000e+00 6.412500e-02 0.000000e+00
-1.596000e+00 6.412500e-02 0.000000e+00
-1.512000e+00 6.412500e-02 0.000000e+00
-1.428000e+00 6.412500e-02 0.000000e+00
-1.344000e+00 6.412500e-02 0.000000e+00
-1.680000e+00 1.282500e-01 0.000000e+00
-1.596000e+00 1.282500e-01 0.000000e+00
-1.512000e+00 1.282500e-01 0.000000e+00
-1.428000e+00 1.282500e-01 0.000000e+00
-1.344000e+00 1.282500e-01 0.000000e+00
-1.680000e+00 1.923750e-01 0.000000e+00
-1.596000e+00 1.923750e-01 0.000000e+00
-1.512000e+00 1.923750e-01 0.000000e+00
-1.428000e+00 1.923750e-01 0.000000e+00
-1.344000e+00 1.923750e-01 0.000000e+00
-1.680000e+00 2.565000e-01 0.000000e+00
-1.596000e+00 2.565000e-01 0.000000e+00
-1.512000e+00 2.565000e-01 0.000000e+00
-1.428000e+00 2.565000e-01 0.000000e+00
-1.344000e+00 2.565000e-01 0.000000e+00
-1.344000e+00 0.000000e+00 0.000000e+00
-1.260000e+00 0.000000e+00 0.000000e+00
-1.176000e+00 0.000000e+00 0.000000e+00
-1.092000e+00 0.000000e+00 0.000000e+00
-1.008000e+00 0.000000e+00 0.000000e+00
-1.344000e+00 6.412500e-02 0.000000e+00
-1.260000e+00 6.412500e-02 0.000000e+00
-1.176000e+00 6.412500e-02 0.000000e+00
-1.092000e+00 6.412500e-02 0.000000e+00
-1.008000e+00 6.412500e-02 0.000000e+00
-1.344000e+00 1.282500e-01 0.000000e+00
-1.260000e+00 1.282500e-01 0.000000e+00
-1.176000e+00 1.282500e-01 0.000000e+00
-1.092000e+00 1.282500e-01 0.000000e+00
-1.008000e+00 1.282500e-01 0.000000e+00
-1.344000e+00 1.923750e-01 0.000000e+00
-1.260000e+00 1.923750e-01 0.000000e+00
-1.176000e+00 1.923750e-01 0.000000e+00
-1.092000e+00 1.923750e-01 0.000000e+00
-1.008000e+00 1.923750e-01 0.000000e+00
-1.344000e+00 2.565000e-01 0.000000e+00
-1.260000e+00 2.565000e-01 0.000000e+00
-1.176000e+00 2.565000e-01 0.000000e+00
-1.092000e+00 2.565000e-01 0.000000e+00
-1.008000e+00 2.565000e-01 0.000000e+00
-1.008000e+00 0.000000e+00 0.000000e+00
-9.240000e-01 0.000000e+00 0.000000e+00
-8.400000e-01 0.000000e+00 0.000000e+00
-7.560000e-01 0.000000e+00 0.000000e+00
-6.720000e-01 0.000000e+00 0.000000e+00
-1.008000e+00 6.412500e-02 0.000000e+00
-9.240000e-01 6.412500e-02 0.000000e+00
-8.400000e-01 6.412500e-02 0.000000e+00
-7.560000e-01 6.412500e-02 0.000000e+00
-6.720000e-01 6.412500e-02 0.000000e+00
-1.008000e+00 1.282500e-01 0.000000e+00
-9.240000e-01 1.282500e-01 0.000000e+00
-8.400000e-01 1.282500e-01 0.000000e+00
-7.560000e-01 1.282500e-01 0.000000e+00
-6.720000e-01 1.282500e-01 0.000000e+00
-1.008000e+00 1.923750e-01 0.000000e+00
-9.240000e-01 1.923750e-01 0.000000e+00
-8.400000e-01 1.923750e-01 0.000000e+00
-7.560000e-01 1.923750e-01 0.000000e+00
-6.720000e-01 1.923750e-01 0.000000e+00
-1.008000e+00 2.565000e-01 0.000000e+00
-9.240000e-01 2.565000e-01 0.000000e+00
-8.400000e-01 2.565000e-01 0.000000e+00
-7.560000e-01 2.565000e-01 0.000000e+00
-6.720000e-01 2.565000e-01 0.000000e+00
-6.720000e-01 0.000000e+00 0.000000e+00
-5.880000e-01 0.000000e+00 0.000000e+00
-5.040000e-01 0.000000e+00 0.000000e+00
-4.200000e-01 0.000000e+00 0.000000e+00
-3.360000e-01 0.000000e+00 0.000000e+00
-6.720000e-01 6.412500e-02 0.000000e+00
-5.880000e-01 6.412500e-02 0.000000e+00
-5.040000e-01 6.412500e-02 0.000000e+00
-4.200000e-01 6.412500e-02 0.000000e+00
-3.360000e-01 6.412500e-02 0.000000e+00
-6.720000e-01 1.282500e-01 0.000000e+00
-5.880000e-01 1.282500e-01 0.000000e+00
-5.040000e-01 1.282500e-01 0.000000e+00
-4.200000e-01 1.282500e-01 0.000000e+00
-3.360000e-01 1.282500e-01 0.000000e+00
-6.720000e-01 1.923750e-01 0.000000e+00
-5.880000e-01 1.923750e-01 0.000000e+00
-5.040000e-01 1.923750e-01 0.000000e+00
-4.200000e-01 1.923750e-01 0.000000e+00
-3.360000e-01 1.923750e-01 0.000000e+00
-6.720000e-01 2.565000e-01 0.000000e+00
-5.880000e-01 2.565000e-01 0.000000e+00
-5.040000e-01 2.565000e-01 0.000000e+00
-4.200000e-01 2.565000e-01 0.000000e+00
-3.360000e-01 2.565000e-01 0.000000e+00
-3.360000e-01 0.000000e+00 0.000000e+00
-2.520000e-01 0.000000e+00 0.000000e+00
-1.680000e-01 0.000000e+00 0.000000e+00
-8.400000e-02 0.000000e+00 0.000000e+00
-4.440890e-16 0.000000e+00 0.000000e+00
-3.360000e-01 6.412500e-02 0.000000e+00
-2.520000e-01 6.412500e-02 0.000000e+00
-1.680000e-01 6.412500e-02 0.000000e+00
-8.400000e-02 6.412500e-02 0.000000e+00
-4.440890e-16 6.412500e-02 0.000000e+00
-3.360000e-01 1.282500e-01 0.000000e+00
-2.520000e-01 1.282500e-01 0.000000e+00
-1.680000e-01 1.282500e-01 0.000000e+00
-8.400000e-02 1.282500e-01 0.000000e+00
-4.440890e-16 1.282500e-01 0.000000e+00
-3.360000e-01 1.923750e-01 0.000000e+00
-2.520000e-01 1.923750e-01 0.000000e+00
-1.680000e-01 1.923750e-01 0.000000e+00
[...]
<PointData>
<DataArray type="Float32" Name="V1" format="ascii">
0.000000e+00
0.000000e+00
0.000000e+00
0.000000e+00
0.000000e+00
6.347820e-02
5.959320e-02
5.544010e-02
5.101910e-02
4.633020e-02
1.013490e-01
9.766590e-02
9.306030e-02
8.753180e-02
8.108040e-02
1.136110e-01
1.142180e-01
1.128600e-01
1.095380e-01
1.042510e-01
1.002660e-01
1.092500e-01
1.148400e-01
1.170380e-01
1.158410e-01
0.000000e+00
0.000000e+00
0.000000e+00
0.000000e+00
0.000000e+00
4.633020e-02
4.153080e-02
3.829780e-02
3.663110e-02
3.653070e-02
8.108040e-02
7.431280e-02
6.972410e-02
6.731430e-02
6.708340e-02
1.042510e-01
9.834610e-02
9.427910e-02
9.204980e-02
9.165810e-02
1.158410e-01
1.136310e-01
1.119630e-01
1.108370e-01
1.102550e-01
0.000000e+00
0.000000e+00
0.000000e+00
0.000000e+00
0.000000e+00
3.653070e-02
3.658400e-02
3.686990e-02
3.738860e-02
3.813990e-02
6.708340e-02
6.724880e-02
6.787340e-02
6.895730e-02
7.050030e-02
9.165810e-02
9.199440e-02
9.301040e-02
9.470600e-02
9.708120e-02
1.102550e-01
1.108210e-01
1.122810e-01
1.146350e-01
1.178830e-01
0.000000e+00
0.000000e+00
0.000000e+00
0.000000e+00
0.000000e+00
3.813990e-02
3.901380e-02
4.027110e-02
4.191180e-02
4.393580e-02
7.050030e-02
7.227320e-02
7.467520e-02
7.770640e-02
8.136670e-02
9.708120e-02
9.977810e-02
1.032120e-01
1.073840e-01
1.122930e-01
1.178830e-01
1.215280e-01
1.258820e-01
1.309440e-01
1.367130e-01
0.000000e+00
0.000000e+00
0.000000e+00
0.000000e+00
0.000000e+00
4.393580e-02
4.619410e-02
4.889260e-02
5.203120e-02
5.560990e-02
8.136670e-02
8.544120e-02
9.027400e-02
9.586500e-02
1.022140e-01
1.122930e-01
1.177410e-01
1.241440e-01
1.315020e-01
1.398130e-01
1.367130e-01
1.430940e-01
1.505040e-01
1.589410e-01
1.684060e-01
0.000000e+00
0.000000e+00
0.000000e+00
0.000000e+00
0.000000e+00
5.560990e-02
5.940730e-02
6.405780e-02
6.956130e-02
7.591780e-02
1.022140e-01
1.089380e-01
1.170740e-01
1.266220e-01
1.375810e-01
1.398130e-01
1.485930e-01
1.590490e-01
1.711820e-01
1.849910e-01
1.684060e-01
1.783710e-01
1.899820e-01
2.032410e-01
2.181460e-01
0.000000e+00
0.000000e+00
0.000000e+00
0.000000e+00
0.000000e+00
7.591780e-02
8.227280e-02
9.023120e-02
9.979310e-02
1.109580e-01
1.375810e-01
1.485330e-01
1.620890e-01
1.782500e-01
1.970150e-01
1.849910e-01
1.987800e-01
2.155730e-01
2.353700e-01
2.581710e-01
2.181460e-01
2.330140e-01
2.506830e-01
2.711530e-01
2.944240e-01
0.000000e+00
0.000000e+00
0.000000e+00
0.000000e+00
0.000000e+00
1.109580e-01
1.215420e-01
1.347030e-01
1.504440e-01
1.687640e-01
1.970150e-01
2.148800e-01
2.368210e-01
2.628400e-01
2.929350e-01
2.581710e-01
2.800150e-01
3.063540e-01
3.371860e-01
3.725130e-01
2.944240e-01
3.169470e-01
3.433010e-01
3.734840e-01
4.074980e-01
0.000000e+00
0.000000e+00
0.000000e+00
0.000000e+00
0.000000e+00
1.687640e-01
1.874340e-01
2.080720e-01
2.306760e-01
2.552480e-01
2.929350e-01
3.238970e-01
3.579230e-01
3.950140e-01
4.351690e-01
3.725130e-01
4.093880e-01
4.495540e-01
4.930130e-01
5.397630e-01
4.074980e-01
4.439060e-01
4.829640e-01
5.246720e-01
5.690310e-01
0.000000e+00
0.000000e+00
0.000000e+00
0.000000e+00
0.000000e+00
2.552480e-01
2.854860e-01
3.134430e-01
3.391210e-01
3.625190e-01
4.351690e-01
4.848810e-01
5.313340e-01
5.745280e-01
6.144620e-01
5.397630e-01
5.981870e-01
6.536730e-01
7.062210e-01
7.558320e-01
5.690310e-01
6.254020e-01
6.804590e-01
7.342000e-01
7.866260e-01
0.000000e+00
0.000000e+00
0.000000e+00
0.000000e+00
0.000000e+00
3.625190e-01
3.937860e-01
4.171860e-01
4.327180e-01
4.403830e-01
6.144620e-01
6.675520e-01
7.091040e-01
7.391210e-01
7.576020e-01
7.558320e-01
8.212970e-01
8.757560e-01
9.192090e-01
9.516570e-01
7.866260e-01
8.550210e-01
9.171400e-01
9.729820e-01
1.022550e+00
0.000000e+00
0.000000e+00
0.000000e+00
0.000000e+00
0.000000e+00
4.403830e-01
4.363970e-01
4.241160e-01
4.035390e-01
3.746660e-01
7.576020e-01
7.588080e-01
7.467280e-01
7.213610e-01
6.827070e-01
9.516570e-01
9.672340e-01
9.678370e-01
9.534660e-01
9.241220e-01
1.022550e+00
1.061670e+00
1.087440e+00
1.099850e+00
1.098910e+00
0.000000e+00
0.000000e+00
0.000000e+00
0.000000e+00
0.000000e+00
3.746660e-01
3.218820e-01
2.702290e-01
2.197060e-01
1.703120e-01
6.827070e-01
6.042160e-01
5.236470e-01
4.409990e-01
3.562720e-01
9.241220e-01
8.470010e-01
7.602540e-01
6.638800e-01
5.578790e-01
1.098910e+00
1.050240e+00
9.800490e-01
8.883480e-01
7.751340e-01
0.000000e+00
0.000000e+00
0.000000e+00
0.000000e+00
0.000000e+00
1.703120e-01
1.318430e-01
9.639390e-02
6.396430e-02
3.455440e-02
3.562720e-01
2.843330e-01
2.179440e-01
1.571060e-01
1.018170e-01
5.578790e-01
4.574690e-01
3.646510e-01
2.794240e-01
2.017890e-01
7.751340e-01
6.512520e-01
5.365140e-01
4.309200e-01
3.344700e-01
0.000000e+00
0.000000e+00
0.000000e+00
0.000000e+00
0.000000e+00
3.455440e-02
1.416070e-02
2.854410e-03
6.356390e-04
7.504340e-03
1.018170e-01
6.398640e-02
4.157670e-02
3.458840e-02
4.302150e-02
2.017890e-01
1.494770e-01
1.161670e-01
1.018580e-01
1.065510e-01
3.344700e-01
2.706330e-01
2.266250e-01
2.024450e-01
1.980940e-01
0.000000e+00
0.000000e+00
0.000000e+00
0.000000e+00
0.000000e+00
7.504340e-03
1.022990e-02
1.481760e-02
2.126750e-02
2.957940e-02
4.302150e-02
4.518070e-02
5.042820e-02
5.876370e-02
7.018750e-02
1.065510e-01
1.048520e-01
1.068320e-01
1.124890e-01
1.218240e-01
1.980940e-01
1.892450e-01
1.840280e-01
1.824430e-01
1.844900e-01
0.000000e+00
0.000000e+00
0.000000e+00
0.000000e+00
0.000000e+00
2.957940e-02
3.594220e-02
4.027360e-02
4.257380e-02
4.284260e-02
7.018750e-02
7.897530e-02
8.452070e-02
8.682340e-02
8.588370e-02
1.218240e-01
1.290990e-01
1.327410e-01
1.327490e-01
1.291230e-01
1.844900e-01
1.863150e-01
1.849350e-01
1.803500e-01
1.725620e-01
0.000000e+00
0.000000e+00
0.000000e+00
0.000000e+00
0.000000e+00
4.284260e-02
4.412120e-02
4.450670e-02
4.399900e-02
4.259830e-02
8.588370e-02
8.662690e-02
8.610420e-02
8.431570e-02
8.126140e-02
1.291230e-01
1.275170e-01
1.247930e-01
1.209500e-01
1.159890e-01
1.725620e-01
1.667920e-01
1.605720e-01
1.539020e-01
1.467820e-01
0.000000e+00
0.000000e+00
0.000000e+00
0.000000e+00
0.000000e+00
4.259830e-02
4.190510e-02
4.088740e-02
3.954510e-02
3.787830e-02
8.126140e-02
7.933730e-02
7.698250e-02
7.419720e-02
7.098130e-02
1.159890e-01
1.122970e-01
1.082860e-01
1.039560e-01
9.930910e-02
1.467820e-01
1.407830e-01
1.347960e-01
1.288230e-01
1.228620e-01
0.000000e+00
0.000000e+00
0.000000e+00
0.000000e+00
0.000000e+00
3.787830e-02
3.700680e-02
3.530960e-02
3.278670e-02
2.943790e-02
7.098130e-02
6.883550e-02
6.567780e-02
6.150810e-02
5.632640e-02
9.930910e-02
9.548610e-02
9.110440e-02
8.616420e-02
8.066540e-02
1.228620e-01
1.169580e-01
1.115900e-01
1.067550e-01
1.024550e-01
1.002660e-01
1.092500e-01
1.148400e-01
1.170380e-01
1.158410e-01
9.945850e-02
1.075740e-01
1.135640e-01
1.174290e-01
1.191690e-01
9.848610e-02
1.055700e-01
1.115020e-01
1.162840e-01
1.199160e-01
9.734850e-02
1.032380e-01
1.086570e-01
1.136040e-01
1.180800e-01
9.604590e-02
1.005790e-01
1.050260e-01
1.093880e-01
1.136640e-01
1.158410e-01
1.136310e-01
1.119630e-01
1.108370e-01
1.102550e-01
1.191690e-01
1.193860e-01
1.196030e-01
1.198200e-01
1.200370e-01
1.199160e-01
1.219190e-01
1.235640e-01
1.248500e-01
1.257780e-01
1.180800e-01
1.212300e-01
1.238450e-01
1.259270e-01
1.274750e-01
1.136640e-01
1.173180e-01
1.204470e-01
1.230510e-01
1.251310e-01
1.102550e-01
1.108210e-01
1.122810e-01
1.146350e-01
1.178830e-01
1.200370e-01
1.210120e-01
1.228400e-01
1.255220e-01
1.290570e-01
1.257780e-01
1.271620e-01
1.293190e-01
1.322470e-01
1.359470e-01
1.274750e-01
1.292720e-01
1.317170e-01
1.348110e-01
1.385530e-01
1.251310e-01
1.273400e-01
1.300340e-01
1.332120e-01
1.368750e-01
1.178830e-01
1.215280e-01
1.258820e-01
1.309440e-01
1.367130e-01
1.290570e-01
1.330680e-01
1.377750e-01
1.431790e-01
1.492800e-01
1.359470e-01
1.401610e-01
1.450490e-01
1.506110e-01
1.568480e-01
1.385530e-01
1.428080e-01
1.477040e-01
1.532400e-01
1.594170e-01
1.368750e-01
1.410100e-01
1.457400e-01
1.510650e-01
1.569870e-01
1.367130e-01
1.430940e-01
1.505040e-01
1.589410e-01
1.684060e-01
1.492800e-01
1.559360e-01
1.636020e-01
1.722780e-01
1.819650e-01
1.568480e-01
1.635880e-01
1.713020e-01
1.799890e-01
1.896490e-01
1.594170e-01
1.660510e-01
1.736030e-01
1.820720e-01
1.914590e-01
1.569870e-01
1.633250e-01
1.705050e-01
1.785280e-01
1.873940e-01
1.684060e-01
1.783710e-01
1.899820e-01
2.032410e-01
2.181460e-01
1.819650e-01
1.920880e-01
2.038040e-01
2.171140e-01
2.320170e-01
1.896490e-01
1.996930e-01
2.112610e-01
2.243510e-01
2.389650e-01
1.914590e-01
2.011880e-01
2.123530e-01
2.249530e-01
2.389890e-01
1.873940e-01
1.965720e-01
2.070800e-01
2.189190e-01
2.320890e-01
2.181460e-01
2.330140e-01
2.506830e-01
2.711530e-01
2.944240e-01
2.320170e-01
2.466290e-01
2.640340e-01
2.842330e-01
3.072260e-01
2.389650e-01
2.530990e-01
2.699960e-01
2.896550e-01
3.120770e-01
2.389890e-01
2.524250e-01
2.685680e-01
2.874190e-01
3.089770e-01
2.320890e-01
2.446060e-01
2.597520e-01
2.775250e-01
2.979270e-01
2.944240e-01
3.169470e-01
3.433010e-01
3.734840e-01
4.074980e-01
3.072260e-01
3.288730e-01
3.545930e-01
3.843860e-01
4.182540e-01
3.120770e-01
3.325770e-01
3.573990e-01
3.865440e-01
4.200110e-01
3.089770e-01
3.280610e-01
3.517210e-01
3.799570e-01
4.127700e-01
2.979270e-01
3.153240e-01
3.375570e-01
3.646260e-01
3.965310e-01
4.074980e-01
4.439060e-01
4.829640e-01
5.246720e-01
5.690310e-01
4.182540e-01
4.533290e-01
4.918900e-01
5.339370e-01
5.794680e-01
4.200110e-01
4.534920e-01
4.912250e-01
5.332100e-01
5.794470e-01
4.127700e-01
4.443940e-01
4.809680e-01
5.224920e-01
5.689650e-01
3.965310e-01
4.260360e-01
4.611200e-01
5.017820e-01
5.480240e-01
5.690310e-01
6.254020e-01
6.804590e-01
7.342000e-01
7.866260e-01
5.794680e-01
6.379950e-01
6.956290e-01
7.523720e-01
8.082210e-01
5.794470e-01
6.394590e-01
6.989910e-01
7.580430e-01
8.166140e-01
5.689650e-01
6.297940e-01
6.905430e-01
7.512140e-01
8.118050e-01
5.480240e-01
6.090000e-01
6.702860e-01
7.318840e-01
7.937930e-01
7.866260e-01
8.550210e-01
9.171400e-01
9.729820e-01
1.022550e+00
8.082210e-01
8.851560e-01
9.550670e-01
1.017950e+00
1.073820e+00
8.166140e-01
9.015600e-01
9.787750e-01
1.048260e+00
1.110010e+00
8.118050e-01
9.042320e-01
9.882630e-01
1.063900e+00
1.131140e+00
7.937930e-01
8.931720e-01
9.835320e-01
1.064870e+00
1.137190e+00
1.022550e+00
1.061670e+00
1.087440e+00
1.099850e+00
1.098910e+00
1.073820e+00
1.121370e+00
1.156770e+00
1.180030e+00
1.191150e+00
1.110010e+00
1.164580e+00
1.207800e+00
1.239680e+00
1.260220e+00
1.131140e+00
1.191310e+00
1.240530e+00
1.278800e+00
1.306110e+00
1.137190e+00
1.201570e+00
1.254970e+00
1.297390e+00
1.328830e+00
1.098910e+00
1.050240e+00
9.800490e-01
8.883480e-01
7.751340e-01
1.191150e+00
1.159050e+00
1.107700e+00
1.037090e+00
9.472260e-01
1.260220e+00
1.238410e+00
1.200610e+00
1.146810e+00
1.077000e+00
1.306110e+00
1.288320e+00
1.258790e+00
1.217500e+00
1.164460e+00
1.328830e+00
1.308780e+00
1.282230e+00
1.249170e+00
1.209610e+00
7.751340e-01
6.512520e-01
5.365140e-01
4.309200e-01
3.344700e-01
9.472260e-01
8.241590e-01
7.043990e-01
5.879450e-01
4.747960e-01
1.077000e+00
9.617920e-01
8.441810e-01
7.241680e-01
6.017530e-01
1.164460e+00
1.064150e+00
9.558600e-01
8.395890e-01
7.153400e-01
1.209610e+00
1.131230e+00
1.039440e+00
9.342100e-01
8.155570e-01
3.344700e-01
2.706330e-01
2.266250e-01
2.024450e-01
1.980940e-01
4.747960e-01
3.983690e-01
3.412950e-01
3.035720e-01
2.852010e-01
6.017530e-01
5.152500e-01
4.467990e-01
3.964010e-01
3.640560e-01
7.153400e-01
6.212730e-01
5.431380e-01
4.809340e-01
4.346610e-01
8.155570e-01
7.164410e-01
6.303120e-01
5.571710e-01
4.970160e-01
1.980940e-01
1.892450e-01
1.840280e-01
1.824430e-01
1.844900e-01
2.852010e-01
2.650570e-01
2.498670e-01
2.396290e-01
2.343440e-01
3.640560e-01
3.325590e-01
3.072600e-01
2.881570e-01
2.752510e-01
4.346610e-01
3.917520e-01
3.562070e-01
3.280260e-01
3.072080e-01
4.970160e-01
4.426350e-01
3.967090e-01
3.592360e-01
3.302180e-01
1.844900e-01
1.863150e-01
1.849350e-01
1.803500e-01
1.725620e-01
2.343440e-01
2.309450e-01
2.247050e-01
2.156250e-01
2.037040e-01
2.752510e-01
2.667200e-01
2.558790e-01
2.427290e-01
2.272680e-01
3.072080e-01
2.936390e-01
2.784570e-01
2.616610e-01
2.432530e-01
3.302180e-01
3.117020e-01
2.924370e-01
2.724230e-01
2.516600e-01
1.725620e-01
1.667920e-01
1.605720e-01
1.539020e-01
1.467820e-01
2.037040e-01
1.944420e-01
1.852530e-01
1.761360e-01
1.670910e-01
2.272680e-01
2.149860e-01
2.032830e-01
1.921590e-01
1.816150e-01
2.432530e-01
2.284220e-01
2.146620e-01
2.019720e-01
1.903540e-01
2.516600e-01
2.347510e-01
2.193900e-01
2.055750e-01
1.933080e-01
1.467820e-01
1.407830e-01
1.347960e-01
1.288230e-01
1.228620e-01
1.670910e-01
1.594670e-01
1.520320e-01
1.447860e-01
1.377310e-01
1.816150e-01
1.727180e-01
1.641820e-01
1.560050e-01
1.481880e-01
1.903540e-01
1.805380e-01
1.712470e-01
1.624780e-01
1.542340e-01
1.933080e-01
1.829270e-01
1.732260e-01
1.642070e-01
1.558680e-01
1.228620e-01
1.169580e-01
1.115900e-01
1.067550e-01
1.024550e-01
1.377310e-01
1.310190e-01
1.249920e-01
1.196490e-01
1.149900e-01
1.481880e-01
1.409110e-01
1.344260e-01
1.287330e-01
1.238330e-01
1.542340e-01
1.466320e-01
1.398900e-01
1.340070e-01
1.289840e-01
1.558680e-01
1.481840e-01
1.413850e-01
1.354720e-01
1.304430e-01
9.604590e-02
1.005790e-01
1.050260e-01
1.093880e-01
1.136640e-01
9.458900e-02
9.862000e-02
1.026060e-01
1.065470e-01
1.104440e-01
9.299440e-02
9.667070e-02
1.002910e-01
1.038560e-01
1.073660e-01
9.126190e-02
9.473110e-02
9.808210e-02
1.013150e-01
1.044300e-01
8.939170e-02
9.280120e-02
9.597850e-02
9.892340e-02
1.016360e-01
1.136640e-01
1.173180e-01
1.204470e-01
1.230510e-01
1.251310e-01
1.104440e-01
1.139740e-01
1.171360e-01
1.199310e-01
1.223590e-01
1.073660e-01
1.107040e-01
1.138190e-01
1.167110e-01
1.193800e-01
1.044300e-01
1.075090e-01
1.104960e-01
1.133910e-01
1.161950e-01
1.016360e-01
1.043880e-01
1.071660e-01
1.099720e-01
1.128040e-01
1.251310e-01
1.273400e-01
1.300340e-01
1.332120e-01
1.368750e-01
1.223590e-01
1.248580e-01
1.277450e-01
1.310200e-01
1.346830e-01
1.193800e-01
1.220950e-01
1.251170e-01
1.284480e-01
1.320880e-01
1.161950e-01
1.190510e-01
1.221530e-01
1.254990e-01
1.290900e-01
1.128040e-01
1.157280e-01
1.188500e-01
1.221710e-01
1.256910e-01
1.368750e-01
1.410100e-01
1.457400e-01
1.510650e-01
1.569870e-01
1.346830e-01
1.387470e-01
1.433710e-01
1.485520e-01
1.542920e-01
1.320880e-01
1.360660e-01
1.405630e-01
1.455790e-01
1.511150e-01
1.290900e-01
1.329640e-01
1.373160e-01
1.421460e-01
1.474530e-01
1.256910e-01
1.294430e-01
1.336300e-01
1.382520e-01
1.433090e-01
1.569870e-01
1.633250e-01
1.705050e-01
1.785280e-01
1.873940e-01
1.542920e-01
1.604080e-01
1.673170e-01
1.750190e-01
1.835160e-01
1.511150e-01
1.569800e-01
1.635870e-01
1.709350e-01
1.790250e-01
1.474530e-01
1.530420e-01
1.593160e-01
1.662750e-01
1.739210e-01
1.433090e-01
1.485930e-01
1.545030e-01
1.610400e-01
1.682040e-01
1.873940e-01
1.965720e-01
2.070800e-01
2.189190e-01
2.320890e-01
1.835160e-01
1.922680e-01
2.022840e-01
2.135650e-01
2.261110e-01
1.790250e-01
1.873010e-01
1.967680e-01
2.074270e-01
2.192790e-01
1.739210e-01
1.816700e-01
1.905320e-01
2.005050e-01
2.115910e-01
1.682040e-01
1.753770e-01
1.835750e-01
1.927990e-01
2.030480e-01
2.320890e-01
2.446060e-01
2.597520e-01
2.775250e-01
2.979270e-01
2.261110e-01
2.379610e-01
2.523520e-01
2.692830e-01
2.887550e-01
2.192790e-01
2.303730e-01
2.438900e-01
2.598300e-01
2.781940e-01
2.115910e-01
2.218410e-01
2.343660e-01
2.491670e-01
2.662420e-01
2.030480e-01
2.123660e-01
2.237810e-01
2.372920e-01
2.528990e-01
2.979270e-01
3.153240e-01
3.375570e-01
3.646260e-01
3.965310e-01
2.887550e-01
3.045260e-01
3.255360e-01
3.517830e-01
3.832690e-01
2.781940e-01
2.922280e-01
3.117940e-01
3.368930e-01
3.675250e-01
2.662420e-01
2.784290e-01
2.963340e-01
3.199570e-01
3.492980e-01
2.528990e-01
2.631290e-01
2.791530e-01
3.009730e-01
3.285890e-01
3.965310e-01
4.260360e-01
4.611200e-01
5.017820e-01
5.480240e-01
3.832690e-01
4.106150e-01
4.441020e-01
4.837300e-01
5.294990e-01
3.675250e-01
3.915250e-01
4.225950e-01
4.607360e-01
5.059460e-01
3.492980e-01
3.687660e-01
3.966000e-01
4.328000e-01
4.773660e-01
3.285890e-01
3.423370e-01
3.661140e-01
3.999220e-01
4.437590e-01
5.480240e-01
6.090000e-01
6.702860e-01
7.318840e-01
7.937930e-01
5.294990e-01
5.909860e-01
6.522690e-01
7.133500e-01
7.742270e-01
5.059460e-01
5.661650e-01
6.249210e-01
6.822150e-01
7.380480e-01
4.773660e-01
5.345370e-01
5.882420e-01
6.384810e-01
6.852550e-01
4.437590e-01
4.961020e-01
5.422310e-01
5.821470e-01
6.158500e-01
7.937930e-01
8.931720e-01
9.835320e-01
1.064870e+00
1.137190e+00
7.742270e-01
8.817270e-01
9.779710e-01
1.062960e+00
1.136690e+00
7.380480e-01
8.513940e-01
9.504150e-01
1.035110e+00
1.105480e+00
6.852550e-01
8.021740e-01
9.008630e-01
9.813230e-01
1.043550e+00
6.158500e-01
7.340660e-01
8.293160e-01
9.016000e-01
9.509180e-01
1.137190e+00
1.201570e+00
1.254970e+00
1.297390e+00
1.328830e+00
1.136690e+00
1.203820e+00
1.259910e+00
1.304980e+00
1.339030e+00
1.105480e+00
1.172890e+00
1.230250e+00
1.277570e+00
1.314830e+00
1.043550e+00
1.108790e+00
1.165980e+00
1.215130e+00
1.256240e+00
9.509180e-01
1.011510e+00
1.067100e+00
1.117690e+00
1.163260e+00
1.328830e+00
1.308780e+00
1.282230e+00
1.249170e+00
1.209610e+00
1.339030e+00
1.316850e+00
1.290150e+00
1.258930e+00
1.223190e+00
1.314830e+00
1.289560e+00
1.263300e+00
1.236040e+00
1.207800e+00
1.256240e+00
1.226920e+00
1.201680e+00
1.180520e+00
1.163450e+00
1.163260e+00
1.128930e+00
1.105290e+00
1.092360e+00
1.090130e+00
1.209610e+00
1.131230e+00
1.039440e+00
9.342100e-01
8.155570e-01
1.223190e+00
1.150770e+00
1.066990e+00
9.718620e-01
8.653790e-01
1.207800e+00
1.141820e+00
1.066150e+00
9.807830e-01
8.857200e-01
1.163450e+00
1.104410e+00
1.036910e+00
9.609720e-01
8.765810e-01
1.090130e+00
1.038510e+00
9.792780e-01
9.124280e-01
8.379620e-01
8.155570e-01
7.164410e-01
6.303120e-01
5.571710e-01
4.970160e-01
8.653790e-01
7.725500e-01
6.878590e-01
6.113030e-01
5.428840e-01
8.857200e-01
8.019510e-01
7.217450e-01
6.451000e-01
5.720180e-01
8.765810e-01
8.046430e-01
7.319710e-01
6.585620e-01
5.844190e-01
8.379620e-01
7.806270e-01
7.185360e-01
6.516890e-01
5.800850e-01
4.970160e-01
4.426350e-01
3.967090e-01
3.592360e-01
3.302180e-01
5.428840e-01
4.822360e-01
4.292230e-01
3.838450e-01
3.461000e-01
5.720180e-01
5.081510e-01
4.507210e-01
3.997260e-01
3.551680e-01
5.844190e-01
5.203810e-01
4.612010e-01
4.068810e-01
3.574200e-01
5.800850e-01
5.189240e-01
4.606650e-01
4.053090e-01
3.528560e-01
3.302180e-01
3.117020e-01
2.924370e-01
2.724230e-01
2.516600e-01
3.461000e-01
3.221540e-01
2.989100e-01
2.763680e-01
2.545280e-01
3.551680e-01
3.271780e-01
3.010920e-01
2.769100e-01
2.546320e-01
3.574200e-01
3.267730e-01
2.989830e-01
2.740490e-01
2.519720e-01
3.528560e-01
3.209400e-01
2.925830e-01
2.677850e-01
2.465460e-01
2.516600e-01
2.347510e-01
2.193900e-01
2.055750e-01
1.933080e-01
2.545280e-01
2.364250e-01
2.201640e-01
2.057470e-01
1.931720e-01
2.546320e-01
2.358010e-01
2.190290e-01
2.043160e-01
1.916630e-01
2.519720e-01
2.328810e-01
2.159850e-01
2.012840e-01
1.887790e-01
2.465460e-01
2.276630e-01
2.110310e-01
1.966500e-01
1.845200e-01
1.933080e-01
1.829270e-01
1.732260e-01
1.642070e-01
1.558680e-01
1.931720e-01
1.825910e-01
1.727870e-01
1.637620e-01
1.555160e-01
1.916630e-01
1.810640e-01
1.713080e-01
1.623930e-01
1.543210e-01
1.887790e-01
1.783470e-01
1.687880e-01
1.601000e-01
1.522840e-01
1.845200e-01
1.744390e-01
1.652270e-01
1.568820e-01
1.494050e-01
1.558680e-01
1.481840e-01
1.413850e-01
1.354720e-01
1.304430e-01
1.555160e-01
1.478780e-01
1.411650e-01
1.353780e-01
1.305150e-01
1.543210e-01
1.467900e-01
1.402140e-01
1.345940e-01
1.299300e-01
1.522840e-01
1.449190e-01
1.385300e-01
1.331190e-01
1.286850e-01
1.494050e-01
1.422650e-01
1.361150e-01
1.309540e-01
1.267820e-01
8.939170e-02
9.280120e-02
9.597850e-02
9.892340e-02
1.016360e-01
8.740010e-02
9.058480e-02
9.355460e-02
9.630950e-02
9.884950e-02
8.530680e-02
8.826180e-02
9.102760e-02
9.360410e-02
9.599140e-02
8.311190e-02
8.583240e-02
8.839750e-02
9.080730e-02
9.306180e-02
8.081530e-02
8.329650e-02
8.566440e-02
8.791920e-02
9.006070e-02
1.016360e-01
1.043880e-01
1.071660e-01
1.099720e-01
1.128040e-01
9.884950e-02
1.013910e-01
1.040210e-01