<?xml version="1.0"?>
<VTKFile type="UnstructuredGrid" version="0.1" byte_order="LittleEndian" compressor="vtkZLibDataCompressor">
<UnstructuredGrid>
<Piece NumberOfPoints="10000" NumberOfCells="6400">
<Points>
<DataArray type="Float32" NumberOfComponents="3" format="ascii">
-3.360000e+00 0.000000e+00 0.000000e+00
-3.276000e+00 0.000000e+00 0.000000e+00
-3.192000e+00 0.000000e+00 0.000000e+00
-3.108000e+00 0.000000e+00 0.000000e+00
-3.024000e+00 0.000000e+00 0.000000e+00
-3.360000e+00 6.412500e-02 0.000000e+00
-3.276000e+00 6.412500e-02 0.000000e+00
-3.192000e+00 6.412500e-02 0.000000e+00
-3.108000e+00 6.412500e-02 0.000000e+00
-3.024000e+00 6.412500e-02 0.000000e+00
-3.360000e+00 1.282500e-01 0.000000e+00
-3.276000e+00 1.282500e-01 0.000000e+00
-3.192000e+00 1.282500e-01 0.000000e+00
-3.108000e+00 1.282500e-01 0.000000e+00
-3.024000e+00 1.282500e-01 0.000000e+00
-3.360000e+00 1.923750e-01 0.000000e+00
-3.276000e+00 1.923750e-01 0.000000e+00
-3.192000e+00 1.923750e-01 0.000000e+00
-3.108000e+00 1.923750e-01 0.000000e+00
-3.024000e+00 1.923750e-01 0.000000e+00
-3.360000e+00 2.565000e-01 0.000000e+00
-3.276000e+00 2.565000e-01 0.000000e+00
-3.192000e+00 2.565000e-01 0.000000e+00
-3.108000e+00 2.565000e-01 0.000000e+00
-3.024000e+00 2.565000e-01 0.000000e+00
-3.024000e+00 0.000000e+00 0.000000e+00
-2.940000e+00 0.000000e+00 0.000000e+00
-2.856000e+00 0.000000e+00 0.000000e+00
-2.772000e+00 0.000000e+00 0.000000e+00
-2.688000e+00 0.000000e+00 0.000000e+00
-3.024000e+00 6.412500e-02 0.000000e+00
-2.940000e+00 6.412500e-02 0.000000e+00
-2.856000e+00 6.412500e-02 0.000000e+00
-2.772000e+00 6.412500e-02 0.000000e+00
-2.688000e+00 6.412500e-02 0.000000e+00
-3.024000e+00 1.282500e-01 0.000000e+00
-2.940000e+00 1.282500e-01 0.000000e+00
-2.856000e+00 1.282500e-01 0.000000e+00
-2.772000e+00 1.282500e-01 0.000000e+00
-2.688000e+00 1.282500e-01 0.000000e+00
-3.024000e+00 1.923750e-01 0.000000e+00
-2.940000e+00 1.923750e-01 0.000000e+00
-2.856000e+00 1.923750e-01 0.000000e+00
-2.772000e+00 1.923750e-01 0.000000e+00
-2.688000e+00 1.923750e-01 0.000000e+00
-3.024000e+00 2.565000e-01 0.000000e+00
-2.940000e+00 2.565000e-01 0.000000e+00
-2.856000e+00 2.565000e-01 0.000000e+00
-2.772000e+00 2.565000e-01 0.000000e+00
-2.688000e+00 2.565000e-01 0.000000e+00
-2.688000e+00 0.000000e+00 0.000000e+00
-2.604000e+00 0.000000e+00 0.000000e+00
-2.520000e+00 0.000000e+00 0.000000e+00
-2.436000e+00 0.000000e+00 0.000000e+00
-2.352000e+00 0.000000e+00 0.000000e+00
-2.688000e+00 6.412500e-02 0.000000e+00
-2.604000e+00 6.412500e-02 0.000000e+00
-2.520000e+00 6.412500e-02 0.000000e+00
-2.436000e+00 6.412500e-02 0.000000e+00
-2.352000e+00 6.412500e-02 0.000000e+00
-2.688000e+00 1.282500e-01 0.000000e+00
-2.604000e+00 1.282500e-01 0.000000e+00
-2.520000e+00 1.282500e-01 0.000000e+00
-2.436000e+00 1.282500e-01 0.000000e+00
-2.352000e+00 1.282500e-01 0.000000e+00
-2.688000e+00 1.923750e-01 0.000000e+00
-2.604000e+00 1.923750e-01 0.000000e+00
-2.520000e+00 1.923750e-01 0.000000e+00
-2.436000e+00 1.923750e-01 0.000000e+00
-2.352000e+00 1.923750e-01 0.000000e+00
-2.688000e+00 2.565000e-01 0.000000e+00
-2.604000e+00 2.565000e-01 0.000000e+00
-2.520000e+00 2.565000e-01 0.000000e+00
-2.436000e+00 2.565000e-01 0.000000e+00
-2.352000e+00 2.565000e-01 0.000000e+00
-2.352000e+00 0.000000e+00 0.000000e+00
-2.268000e+00 0.000000e+00 0.000000e+00
-2.184000e+00 0.000000e+00 0.000000e+00
-2.100000e+00 0.000000e+00 0.000000e+00
-2.016000e+00 0.000000e+00 0.000000e+00
-2.352000e+00 6.412500e-02 0.000000e+00
-2.268000e+00 6.412500e-02 0.000000e+00
-2.184000e+00 6.412500e-02 0.000000e+00
-2.100000e+00 6.412500e-02 0.000000e+00
-2.016000e+00 6.412500e-02 0.000000e+00
-2.352000e+00 1.282500e-01 0.000000e+00
-2.268000e+00 1.282500e-01 0.000000e+00
-2.184000e+00 1.282500e-01 0.000000e+00
-2.100000e+00 1.282500e-01 0.000000e+00
-2.016000e+00 1.282500e-01 0.000000e+00
-2.352000e+00 1.923750e-01 0.000000e+00
-2.268000e+00 1.923750e-01 0.000000e+00
-2.184000e+00 1.923750e-01 0.000000e+00
-2.100000e+00 1.923750e-01 0.000000e+00
-2.016000e+00 1.923750e-01 0.000000e+00
-2.352000e+00 2.565000e-01 0.000000e+00
-2.268000e+00 2.565000e-01 0.000000e+00
-2.184000e+00 2.565000e-01 0.000000e+00
-2.100000e+00 2.565000e-01 0.000000e+00
-2.016000e+00 2.565000e-01 0.000000e+00
-2.016000e+00 0.000000e+00 0.000000e+00
-1.932000e+00 0.000000e+00 0.000000e+00
-1.848000e+00 0.000000e+00 0.000000e+00
-1.764000e+00 0.000000e+00 0.000000e+00
-1.680000e+00 0.000000e+00 0.000000e+00
-2.016000e+00 6.412500e-02 0.000000e+00
-1.932000e+00 6.412500e-02 0.000000e+00
-1.848000e+00 6.412500e-02 0.000000e+00
-1.764000e+00 6.412500e-02 0.000000e+00
-1.680000e+00 6.412500e-02 0.000000e+00
-2.016000e+00 1.282500e-01 0.000000e+00
-1.932000e+00 1.282500e-01 0.000000e+00
-1.848000e+00 1.282500e-01 0.000000e+00
-1.764000e+00 1.282500e-01 0.000000e+00
-1.680000e+00 1.282500e-01 0.000000e+00
-2.016000e+00 1.923750e-01 0.000000e+00
-1.932000e+00 1.923750e-01 0.000000e+00
-1.848000e+00 1.923750e-01 0.000000e+00
-1.764000e+00 1.923750e-01 0.000000e+00
-1.680000e+00 1.923750e-01 0.000000e+00
-2.016000e+00 2.565000e-01 0.000000e+00
-1.932000e+00 2.565000e-01 0.000000e+00
-1.848000e+00 2.565000e-01 0.000000e+00
-1.764000e+00 2.565000e-01 0.000000e+00
-1.680000e+00 2.565000e-01 0.000000e+00
-1.680000e+00 0.000000e+00 0.000000e+00
-1.596000e+00 0.000000e+00 0.000000e+00
-1.512000e+00 0.000000e+00 0.000000e+00
-1.428000e+00 0.000000e+00 0.000000e+00
-1.344000e+00 0.000000e+00 0.000000e+00
-1.680000e+00 6.412500e-02 0.000000e+00
-1.596000e+00 6.412500e-02 0.000000e+00
-1.512000e+00 6.412500e-02 0.000000e+00
-1.428000e+00 6.412500e-02 0.000000e+00
-1.344000e+00 6.412500e-02 0.000000e+00
-1.680000e+00 1.282500e-01 0.000000e+00
-1.596000e+00 1.282500e-01 0.000000e+00
-1.512000e+00 1.282500e-01 0.000000e+00
-1.428000e+00 1.282500e-01 0.000000e+00
-1.344000e+00 1.282500e-01 0.000000e+00
-1.680000e+00 1.923750e-01 0.000000e+00
-1.596000e+00 1.923750e-01 0.000000e+00
-1.512000e+00 1.923750e-01 0.000000e+00
-1.428000e+00 1.923750e-01 0.000000e+00
-1.344000e+00 1.923750e-01 0.000000e+00
-1.680000e+00 2.565000e-01 0.000000e+00
-1.596000e+00 2.565000e-01 0.000000e+00
-1.512000e+00 2.565000e-01 0.000000e+00
-1.428000e+00 2.565000e-01 0.000000e+00
-1.344000e+00 2.565000e-01 0.000000e+00
-1.344000e+00 0.000000e+00 0.000000e+00
-1.260000e+00 0.000000e+00 0.000000e+00
-1.176000e+00 0.000000e+00 0.000000e+00
-1.092000e+00 0.000000e+00 0.000000e+00
-1.008000e+00 0.000000e+00 0.000000e+00
-1.344000e+00 6.412500e-02 0.000000e+00
-1.260000e+00 6.412500e-02 0.000000e+00
-1.176000e+00 6.412500e-02 0.000000e+00
-1.092000e+00 6.412500e-02 0.000000e+00
-1.008000e+00 6.412500e-02 0.000000e+00
-1.344000e+00 1.282500e-01 0.000000e+00
-1.260000e+00 1.282500e-01 0.000000e+00
-1.176000e+00 1.282500e-01 0.000000e+00
-1.092000e+00 1.282500e-01 0.000000e+00
-1.008000e+00 1.282500e-01 0.000000e+00
-1.344000e+00 1.923750e-01 0.000000e+00
-1.260000e+00 1.923750e-01 0.000000e+00
-1.176000e+00 1.923750e-01 0.000000e+00
-1.092000e+00 1.923750e-01 0.000000e+00
-1.008000e+00 1.923750e-01 0.000000e+00
-1.344000e+00 2.565000e-01 0.000000e+00
-1.260000e+00 2.565000e-01 0.000000e+00
-1.176000e+00 2.565000e-01 0.000000e+00
-1.092000e+00 2.565000e-01 0.000000e+00
-1.008000e+00 2.565000e-01 0.000000e+00
-1.008000e+00 0.000000e+00 0.000000e+00
-9.240000e-01 0.000000e+00 0.000000e+00
-8.400000e-01 0.000000e+00 0.000000e+00
-7.560000e-01 0.000000e+00 0.000000e+00
-6.720000e-01 0.000000e+00 0.000000e+00
-1.008000e+00 6.412500e-02 0.000000e+00
-9.240000e-01 6.412500e-02 0.000000e+00
-8.400000e-01 6.412500e-02 0.000000e+00
-7.560000e-01 6.412500e-02 0.000000e+00
-6.720000e-01 6.412500e-02 0.000000e+00
-1.008000e+00 1.282500e-01 0.000000e+00
-9.240000e-01 1.282500e-01 0.000000e+00
-8.400000e-01 1.282500e-01 0.000000e+00
-7.560000e-01 1.282500e-01 0.000000e+00
-6.720000e-01 1.282500e-01 0.000000e+00
-1.008000e+00 1.923750e-01 0.000000e+00
-9.240000e-01 1.923750e-01 0.000000e+00
-8.400000e-01 1.923750e-01 0.000000e+00
-7.560000e-01 1.923750e-01 0.000000e+00
-6.720000e-01 1.923750e-01 0.000000e+00
-1.008000e+00 2.565000e-01 0.000000e+00
-9.240000e-01 2.565000e-01 0.000000e+00
-8.400000e-01 2.565000e-01 0.000000e+00
-7.560000e-01 2.565000e-01 0.000000e+00
-6.720000e-01 2.565000e-01 0.000000e+00
-6.720000e-01 0.000000e+00 0.000000e+00
-5.880000e-01 0.000000e+00 0.000000e+00
-5.040000e-01 0.000000e+00 0.000000e+00
-4.200000e-01 0.000000e+00 0.000000e+00
-3.360000e-01 0.000000e+00 0.000000e+00
-6.720000e-01 6.412500e-02 0.000000e+00
-5.880000e-01 6.412500e-02 0.000000e+00
-5.040000e-01 6.412500e-02 0.000000e+00
-4.200000e-01 6.412500e-02 0.000000e+00
-3.360000e-01 6.412500e-02 0.000000e+00
-6.720000e-01 1.282500e-01 0.000000e+00
-5.880000e-01 1.282500e-01 0.000000e+00
-5.040000e-01 1.282500e-01 0.000000e+00
-4.200000e-01 1.282500e-01 0.000000e+00
-3.360000e-01 1.282500e-01 0.000000e+00
-6.720000e-01 1.923750e-01 0.000000e+00
-5.880000e-01 1.923750e-01 0.000000e+00
-5.040000e-01 1.923750e-01 0.000000e+00
-4.200000e-01 1.923750e-01 0.000000e+00
-3.360000e-01 1.923750e-01 0.000000e+00
-6.720000e-01 2.565000e-01 0.000000e+00
-5.880000e-01 2.565000e-01 0.000000e+00
-5.040000e-01 2.565000e-01 0.000000e+00
-4.200000e-01 2.565000e-01 0.000000e+00
-3.360000e-01 2.565000e-01 0.000000e+00
-3.360000e-01 0.000000e+00 0.000000e+00
-2.520000e-01 0.000000e+00 0.000000e+00
-1.680000e-01 0.000000e+00 0.000000e+00
-8.400000e-02 0.000000e+00 0.000000e+00
-4.440890e-16 0.000000e+00 0.000000e+00
-3.360000e-01 6.412500e-02 0.000000e+00
-2.520000e-01 6.412500e-02 0.000000e+00
-1.680000e-01 6.412500e-02 0.000000e+00
-8.400000e-02 6.412500e-02 0.000000e+00
-4.440890e-16 6.412500e-02 0.000000e+00
-3.360000e-01 1.282500e-01 0.000000e+00
-2.520000e-01 1.282500e-01 0.000000e+00
-1.680000e-01 1.282500e-01 0.000000e+00
-8.400000e-02 1.282500e-01 0.000000e+00
-4.440890e-16 1.282500e-01 0.000000e+00
-3.360000e-01 1.923750e-01 0.000000e+00
-2.520000e-01 1.923750e-01 0.000000e+00
-1.680000e-01 1.923750e-01 0.000000e+00
[...]
<PointData>
<DataArray type="Float32" Name="V1" format="ascii">
0.000000e+00
0.000000e+00
0.000000e+00
0.000000e+00
0.000000e+00
6.347820e-02
5.963260e-02
5.534410e-02
5.061250e-02
4.543800e-02
1.013490e-01
9.772980e-02
9.290700e-02
8.688000e-02
7.964900e-02
1.136110e-01
1.142920e-01
1.126890e-01
1.088030e-01
1.026330e-01
1.002660e-01
1.093180e-01
1.146890e-01
1.163800e-01
1.143900e-01
0.000000e+00
0.000000e+00
0.000000e+00
0.000000e+00
0.000000e+00
4.543800e-02
3.989550e-02
3.581350e-02
3.319210e-02
3.203130e-02
7.964900e-02
7.164280e-02
6.561980e-02
6.157980e-02
5.952300e-02
1.026330e-01
9.524210e-02
8.941890e-02
8.516330e-02
8.247520e-02
1.143900e-01
1.106930e-01
1.072110e-01
1.039420e-01
1.008880e-01
0.000000e+00
0.000000e+00
0.000000e+00
0.000000e+00
0.000000e+00
3.203130e-02
3.109500e-02
3.044510e-02
3.008140e-02
3.000420e-02
5.952300e-02
5.796670e-02
5.695080e-02
5.647540e-02
5.654060e-02
8.247520e-02
8.061500e-02
7.951730e-02
7.918200e-02
7.960910e-02
1.008880e-01
9.904010e-02
9.814440e-02
9.820110e-02
9.920990e-02
0.000000e+00
0.000000e+00
0.000000e+00
0.000000e+00
0.000000e+00
3.000420e-02
3.005480e-02
3.041910e-02
3.109720e-02
3.208900e-02
5.654060e-02
5.685040e-02
5.767950e-02
5.902810e-02
6.089600e-02
7.960910e-02
8.038680e-02
8.178140e-02
8.379280e-02
8.642120e-02
9.920990e-02
1.006640e-01
1.027250e-01
1.053910e-01
1.086640e-01
0.000000e+00
0.000000e+00
0.000000e+00
0.000000e+00
0.000000e+00
3.208900e-02
3.326800e-02
3.471510e-02
3.643040e-02
3.841370e-02
6.089600e-02
6.310560e-02
6.579430e-02
6.896230e-02
7.260940e-02
8.642120e-02
8.951280e-02
9.323760e-02
9.759570e-02
1.025870e-01
1.086640e-01
1.124890e-01
1.170450e-01
1.223310e-01
1.283470e-01
0.000000e+00
0.000000e+00
0.000000e+00
0.000000e+00
0.000000e+00
3.841370e-02
4.063990e-02
4.333700e-02
4.650520e-02
5.014430e-02
7.260940e-02
7.668120e-02
8.155110e-02
8.721920e-02
9.368550e-02
1.025870e-01
1.081240e-01
1.146420e-01
1.221420e-01
1.306240e-01
1.283470e-01
1.349680e-01
1.426110e-01
1.512740e-01
1.609580e-01
0.000000e+00
0.000000e+00
0.000000e+00
0.000000e+00
0.000000e+00
5.014430e-02
5.406090e-02
5.880460e-02
6.437550e-02
7.077360e-02
9.368550e-02
1.006230e-01
1.089370e-01
1.186270e-01
1.296940e-01
1.306240e-01
1.396860e-01
1.503970e-01
1.627550e-01
1.767620e-01
1.609580e-01
1.712500e-01
1.831840e-01
1.967600e-01
2.119770e-01
0.000000e+00
0.000000e+00
0.000000e+00
0.000000e+00
0.000000e+00
7.077360e-02
7.727770e-02
8.527690e-02
9.477130e-02
1.057610e-01
1.296940e-01
1.409370e-01
1.546070e-01
1.707040e-01
1.892280e-01
1.767620e-01
1.909770e-01
2.079890e-01
2.277980e-01
2.504030e-01
2.119770e-01
2.274000e-01
2.454250e-01
2.660530e-01
2.892850e-01
0.000000e+00
0.000000e+00
0.000000e+00
0.000000e+00
0.000000e+00
1.057610e-01
1.165370e-01
1.294180e-01
1.444030e-01
1.614930e-01
1.892280e-01
2.074740e-01
2.290600e-01
2.539850e-01
2.822490e-01
2.504030e-01
2.728120e-01
2.989250e-01
3.287430e-01
3.622660e-01
2.892850e-01
3.125490e-01
3.390140e-01
3.686790e-01
4.015450e-01
0.000000e+00
0.000000e+00
0.000000e+00
0.000000e+00
0.000000e+00
1.614930e-01
1.796440e-01
1.987880e-01
2.189280e-01
2.400620e-01
2.822490e-01
3.125070e-01
3.443680e-01
3.778310e-01
4.128960e-01
3.622660e-01
3.985920e-01
4.367400e-01
4.767100e-01
5.185020e-01
4.015450e-01
4.378960e-01
4.759030e-01
5.155640e-01
5.568810e-01
0.000000e+00
0.000000e+00
0.000000e+00
0.000000e+00
0.000000e+00
2.400620e-01
2.663930e-01
2.895120e-01
3.094190e-01
3.261140e-01
4.128960e-01
4.567630e-01
4.959770e-01
5.305380e-01
5.604460e-01
5.185020e-01
5.711100e-01
6.193950e-01
6.633570e-01
7.029960e-01
5.568810e-01
6.094330e-01
6.597650e-01
7.078750e-01
7.537650e-01
0.000000e+00
0.000000e+00
0.000000e+00
0.000000e+00
0.000000e+00
3.261140e-01
3.453990e-01
3.573810e-01
3.620580e-01
3.594330e-01
5.604460e-01
5.952380e-01
6.190620e-01
6.319180e-01
6.338050e-01
7.029960e-01
7.495180e-01
7.850450e-01
8.095780e-01
8.231180e-01
7.537650e-01
8.082370e-01
8.553290e-01
8.950400e-01
9.273700e-01
0.000000e+00
0.000000e+00
0.000000e+00
0.000000e+00
0.000000e+00
3.594330e-01
3.411460e-01
3.175720e-01
2.887120e-01
2.545650e-01
6.338050e-01
6.113470e-01
5.792640e-01
5.375550e-01
4.862220e-01
8.231180e-01
8.106030e-01
7.850740e-01
7.465310e-01
6.949730e-01
9.273700e-01
9.389150e-01
9.350040e-01
9.156380e-01
8.808150e-01
0.000000e+00
0.000000e+00
0.000000e+00
0.000000e+00
0.000000e+00
2.545650e-01
2.098460e-01
1.690520e-01
1.321830e-01
9.923900e-02
4.862220e-01
4.132310e-01
3.434420e-01
2.768540e-01
2.134670e-01
6.949730e-01
6.101560e-01
5.231690e-01
4.340120e-01
3.426850e-01
8.808150e-01
8.006190e-01
7.082320e-01
6.036570e-01
4.868910e-01
0.000000e+00
0.000000e+00
0.000000e+00
0.000000e+00
0.000000e+00
9.923900e-02
7.617260e-02
5.356620e-02
3.141970e-02
9.733170e-03
2.134670e-01
1.663650e-01
1.215390e-01
7.898900e-02
3.871580e-02
3.426850e-01
2.705760e-01
2.039170e-01
1.427080e-01
8.694790e-02
4.868910e-01
3.888070e-01
3.007020e-01
2.225760e-01
1.544290e-01
0.000000e+00
0.000000e+00
0.000000e+00
0.000000e+00
0.000000e+00
9.733170e-03
-4.428570e-03
-1.295240e-02
-1.583830e-02
-1.308640e-02
3.871580e-02
1.246240e-02
-3.746920e-03
-9.912040e-03
-6.032980e-03
8.694790e-02
5.067280e-02
2.761640e-02
1.777890e-02
2.116020e-02
1.544290e-01
1.102030e-01
8.113770e-02
6.723450e-02
6.849310e-02
0.000000e+00
0.000000e+00
0.000000e+00
0.000000e+00
0.000000e+00
-1.308640e-02
-1.221530e-02
-9.182970e-03
-3.989430e-03
3.365350e-03
-6.032980e-03
-4.980320e-03
-4.263490e-04
7.628940e-03
1.918550e-02
2.116020e-02
2.170490e-02
2.626990e-02
3.485510e-02
4.746060e-02
6.849310e-02
6.784040e-02
7.090570e-02
7.768910e-02
8.819040e-02
0.000000e+00
0.000000e+00
0.000000e+00
0.000000e+00
0.000000e+00
3.365350e-03
8.283060e-03
1.224780e-02
1.525970e-02
1.731860e-02
1.918550e-02
2.682620e-02
3.280890e-02
3.713350e-02
3.980010e-02
4.746060e-02
5.562950e-02
6.168300e-02
6.562130e-02
6.744420e-02
8.819040e-02
9.469280e-02
9.887040e-02
1.007230e-01
1.002510e-01
0.000000e+00
0.000000e+00
0.000000e+00
0.000000e+00
0.000000e+00
1.731860e-02
1.944610e-02
2.077350e-02
2.130080e-02
2.102820e-02
3.980010e-02
4.265320e-02
4.426240e-02
4.462750e-02
4.374860e-02
6.744420e-02
6.962150e-02
7.046670e-02
6.998000e-02
6.816140e-02
1.002510e-01
1.003510e-01
9.938650e-02
9.735840e-02
9.426640e-02
0.000000e+00
0.000000e+00
0.000000e+00
0.000000e+00
0.000000e+00
2.102820e-02
2.148510e-02
2.073860e-02
1.878870e-02
1.563540e-02
4.374860e-02
4.379760e-02
4.222130e-02
3.901980e-02
3.419300e-02
6.816140e-02
6.693750e-02
6.444810e-02
6.069320e-02
5.567280e-02
9.426640e-02
9.090480e-02
8.741890e-02
8.380890e-02
8.007470e-02
1.002660e-01
1.093180e-01
1.146890e-01
1.163800e-01
1.143900e-01
9.945850e-02
1.077000e-01
1.136020e-01
1.171640e-01
1.183850e-01
9.848610e-02
1.057390e-01
1.116910e-01
1.163420e-01
1.196910e-01
9.734850e-02
1.034340e-01
1.089560e-01
1.139140e-01
1.183070e-01
9.604590e-02
1.007860e-01
1.053970e-01
1.098800e-01
1.142340e-01
1.143900e-01
1.106930e-01
1.072110e-01
1.039420e-01
1.008880e-01
1.183850e-01
1.174600e-01
1.161570e-01
1.144770e-01
1.124190e-01
1.196910e-01
1.208750e-01
1.213000e-01
1.209680e-01
1.198780e-01
1.183070e-01
1.209380e-01
1.226410e-01
1.234170e-01
1.232650e-01
1.142340e-01
1.176480e-01
1.201780e-01
1.218220e-01
1.225810e-01
1.008880e-01
9.904010e-02
9.814440e-02
9.820110e-02
9.920990e-02
1.124190e-01
1.110730e-01
1.106020e-01
1.110080e-01
1.122890e-01
1.198780e-01
1.191080e-01
1.190950e-01
1.198390e-01
1.213380e-01
1.232650e-01
1.231470e-01
1.236230e-01
1.246930e-01
1.263570e-01
1.225810e-01
1.231880e-01
1.241850e-01
1.255710e-01
1.273460e-01
9.920990e-02
1.006640e-01
1.027250e-01
1.053910e-01
1.086640e-01
1.122890e-01
1.141020e-01
1.165230e-01
1.195520e-01
1.231890e-01
1.213380e-01
1.234080e-01
1.260700e-01
1.293260e-01
1.331740e-01
1.263570e-01
1.285820e-01
1.313670e-01
1.347130e-01
1.386200e-01
1.273460e-01
1.296240e-01
1.324130e-01
1.357140e-01
1.395270e-01
1.086640e-01
1.124890e-01
1.170450e-01
1.223310e-01
1.283470e-01
1.231890e-01
1.273560e-01
1.322630e-01
1.379080e-01
1.442930e-01
1.331740e-01
1.375240e-01
1.426000e-01
1.484010e-01
1.549280e-01
1.386200e-01
1.429930e-01
1.480560e-01
1.538080e-01
1.602510e-01
1.395270e-01
1.437630e-01
1.486310e-01
1.541300e-01
1.602620e-01
1.283470e-01
1.349680e-01
1.426110e-01
1.512740e-01
1.609580e-01
1.442930e-01
1.512650e-01
1.592350e-01
1.682050e-01
1.781730e-01
1.549280e-01
1.620100e-01
1.700510e-01
1.790530e-01
1.890150e-01
1.602510e-01
1.672020e-01
1.750580e-01
1.838190e-01
1.934850e-01
1.602620e-01
1.668430e-01
1.742560e-01
1.825030e-01
1.915820e-01
1.609580e-01
1.712500e-01
1.831840e-01
1.967600e-01
2.119770e-01
1.781730e-01
1.886350e-01
2.006880e-01
2.143300e-01
2.295620e-01
1.890150e-01
1.993750e-01
2.112580e-01
2.246640e-01
2.395920e-01
1.934850e-01
2.034700e-01
2.148950e-01
2.277610e-01
2.420670e-01
1.915820e-01
2.009190e-01
2.115980e-01
2.236210e-01
2.369870e-01
2.119770e-01
2.274000e-01
2.454250e-01
2.660530e-01
2.892850e-01
2.295620e-01
2.447350e-01
2.624970e-01
2.828460e-01
3.057830e-01
2.395920e-01
2.542400e-01
2.714580e-01
2.912460e-01
3.136040e-01
2.420670e-01
2.559140e-01
2.723090e-01
2.912540e-01
3.127470e-01
2.369870e-01
2.497560e-01
2.650500e-01
2.828690e-01
3.032130e-01
2.892850e-01
3.125490e-01
3.390140e-01
3.686790e-01
4.015450e-01
3.057830e-01
3.282530e-01
3.541380e-01
3.834380e-01
4.161540e-01
3.136040e-01
3.349820e-01
3.600130e-01
3.886970e-01
4.210320e-01
3.127470e-01
3.327380e-01
3.566410e-01
3.844550e-01
4.161790e-01
3.032130e-01
3.215200e-01
3.440200e-01
3.707120e-01
4.015960e-01
4.015450e-01
4.378960e-01
4.759030e-01
5.155640e-01
5.568810e-01
4.161540e-01
4.518240e-01
4.897550e-01
5.299470e-01
5.724010e-01
4.210320e-01
4.557060e-01
4.932000e-01
5.335140e-01
5.766480e-01
4.161790e-01
4.495430e-01
4.862380e-01
5.262640e-01
5.696210e-01
4.015960e-01
4.333350e-01
4.688680e-01
5.081970e-01
5.513200e-01
5.568810e-01
6.094330e-01
6.597650e-01
7.078750e-01
7.537650e-01
5.724010e-01
6.276760e-01
6.809890e-01
7.323400e-01
7.817300e-01
5.766480e-01
6.340090e-01
6.896540e-01
7.435840e-01
7.957980e-01
5.696210e-01
6.284320e-01
6.857610e-01
7.416060e-01
7.959680e-01
5.513200e-01
6.109460e-01
6.693090e-01
7.264070e-01
7.822400e-01
7.537650e-01
8.082370e-01
8.553290e-01
8.950400e-01
9.273700e-01
7.817300e-01
8.444180e-01
8.993270e-01
9.464570e-01
9.858090e-01
7.957980e-01
8.658260e-01
9.277350e-01
9.815240e-01
1.027190e+00
7.959680e-01
8.724620e-01
9.405520e-01
1.000240e+00
1.051520e+00
7.822400e-01
8.643250e-01
9.377800e-01
1.002600e+00
1.058800e+00
9.273700e-01
9.389150e-01
9.350040e-01
9.156380e-01
8.808150e-01
9.858090e-01
1.008000e+00
1.016530e+00
1.011430e+00
9.926740e-01
1.027190e+00
1.057800e+00
1.076270e+00
1.082590e+00
1.076770e+00
1.051520e+00
1.088340e+00
1.114210e+00
1.129130e+00
1.133110e+00
1.058800e+00
1.099610e+00
1.130360e+00
1.151050e+00
1.161690e+00
8.808150e-01
8.006190e-01
7.082320e-01
6.036570e-01
4.868910e-01
9.926740e-01
9.315000e-01
8.528140e-01
7.566150e-01
6.429030e-01
1.076770e+00
1.029950e+00
9.639670e-01
8.788200e-01
7.745100e-01
1.133110e+00
1.095970e+00
1.041690e+00
9.702720e-01
8.817130e-01
1.161690e+00
1.129560e+00
1.085990e+00
1.030970e+00
9.645110e-01
4.868910e-01
3.888070e-01
3.007020e-01
2.225760e-01
1.544290e-01
6.429030e-01
5.258490e-01
4.191000e-01
3.226570e-01
2.365190e-01
7.745100e-01
6.505310e-01
5.339570e-01
4.247870e-01
3.230220e-01
8.817130e-01
7.628540e-01
6.452720e-01
5.289670e-01
4.139400e-01
9.645110e-01
8.628180e-01
7.530470e-01
6.351980e-01
5.092710e-01
1.544290e-01
1.102030e-01
8.113770e-02
6.723450e-02
6.849310e-02
2.365190e-01
1.823330e-01
1.442570e-01
1.222910e-01
1.164360e-01
3.230220e-01
2.581990e-01
2.103590e-01
1.795040e-01
1.656320e-01
4.139400e-01
3.378000e-01
2.794440e-01
2.388720e-01
2.160840e-01
5.092710e-01
4.211360e-01
3.515110e-01
3.003950e-01
2.677890e-01
6.849310e-02
6.784040e-02
7.090570e-02
7.768910e-02
8.819040e-02
1.164360e-01
1.105660e-01
1.096260e-01
1.136140e-01
1.225320e-01
1.656320e-01
1.533080e-01
1.471600e-01
1.471900e-01
1.533980e-01
2.160840e-01
1.960650e-01
1.835100e-01
1.784180e-01
1.807880e-01
2.677890e-01
2.388390e-01
2.186740e-01
2.072960e-01
2.047030e-01
8.819040e-02
9.469280e-02
9.887040e-02
1.007230e-01
1.002510e-01
1.225320e-01
1.275340e-01
1.298690e-01
1.295350e-01
1.265320e-01
1.533980e-01
1.564530e-01
1.566620e-01
1.540230e-01
1.485360e-01
1.807880e-01
1.814500e-01
1.792490e-01
1.741870e-01
1.662630e-01
2.047030e-01
2.025240e-01
1.976320e-01
1.900280e-01
1.797120e-01
1.002510e-01
1.003510e-01
9.938650e-02
9.735840e-02
9.426640e-02
1.265320e-01
1.247240e-01
1.220430e-01
1.184890e-01
1.140620e-01
1.485360e-01
1.448130e-01
1.404770e-01
1.355280e-01
1.299650e-01
1.662630e-01
1.606180e-01
1.546890e-01
1.484750e-01
1.419760e-01
1.797120e-01
1.721390e-01
1.646780e-01
1.573310e-01
1.500950e-01
9.426640e-02
9.090480e-02
8.741890e-02
8.380890e-02
8.007470e-02
1.140620e-01
1.095910e-01
1.052230e-01
1.009580e-01
9.679490e-02
1.299650e-01
1.245290e-01
1.194030e-01
1.145870e-01
1.100820e-01
1.419760e-01
1.357180e-01
1.299590e-01
1.246980e-01
1.199360e-01
1.500950e-01
1.431590e-01
1.368910e-01
1.312900e-01
1.263560e-01
9.604590e-02
1.007860e-01
1.053970e-01
1.098800e-01
1.142340e-01
9.458900e-02
9.880530e-02
1.029420e-01
1.070000e-01
1.109780e-01
9.299440e-02
9.683070e-02
1.005750e-01
1.042270e-01
1.077870e-01
9.126190e-02
9.486180e-02
9.829490e-02
1.015610e-01
1.046610e-01
8.939170e-02
9.289880e-02
9.610250e-02
9.900270e-02
1.015990e-01
1.142340e-01
1.176480e-01
1.201780e-01
1.218220e-01
1.225810e-01
1.109780e-01
1.143430e-01
1.170320e-01
1.190430e-01
1.203770e-01
1.077870e-01
1.109790e-01
1.136900e-01
1.159180e-01
1.176650e-01
1.046610e-01
1.075560e-01
1.101520e-01
1.124500e-01
1.144480e-01
1.015990e-01
1.040740e-01
1.064200e-01
1.086360e-01
1.107230e-01
1.225810e-01
1.231880e-01
1.241850e-01
1.255710e-01
1.273460e-01
1.203770e-01
1.215030e-01
1.229000e-01
1.245690e-01
1.265080e-01
1.176650e-01
1.191980e-01
1.209120e-01
1.228080e-01
1.248840e-01
1.144480e-01
1.162750e-01
1.182210e-01
1.202880e-01
1.224740e-01
1.107230e-01
1.127320e-01
1.148280e-01
1.170090e-01
1.192770e-01
1.273460e-01
1.296240e-01
1.324130e-01
1.357140e-01
1.395270e-01
1.265080e-01
1.288570e-01
1.316680e-01
1.349420e-01
1.386780e-01
1.248840e-01
1.272890e-01
1.301090e-01
1.333430e-01
1.369920e-01
1.224740e-01
1.249200e-01
1.277350e-01
1.309180e-01
1.344690e-01
1.192770e-01
1.217500e-01
1.245470e-01
1.276660e-01
1.311100e-01
1.395270e-01
1.437630e-01
1.486310e-01
1.541300e-01
1.602620e-01
1.386780e-01
1.427990e-01
1.475100e-01
1.528090e-01
1.586990e-01
1.369920e-01
1.409870e-01
1.455290e-01
1.506170e-01
1.562520e-01
1.344690e-01
1.383280e-01
1.426900e-01
1.475540e-01
1.529220e-01
1.311100e-01
1.348210e-01
1.389910e-01
1.436200e-01
1.487090e-01
1.602620e-01
1.668430e-01
1.742560e-01
1.825030e-01
1.915820e-01
1.586990e-01
1.649800e-01
1.720530e-01
1.799170e-01
1.885710e-01
1.562520e-01
1.622220e-01
1.689370e-01
1.763990e-01
1.846080e-01
1.529220e-01
1.585670e-01
1.649100e-01
1.719510e-01
1.796920e-01
1.487090e-01
1.540150e-01
1.599700e-01
1.665730e-01
1.738240e-01
1.915820e-01
2.009190e-01
2.115980e-01
2.236210e-01
2.369870e-01
1.885710e-01
1.974280e-01
2.075700e-01
2.189970e-01
2.317110e-01
1.846080e-01
1.929540e-01
2.025210e-01
2.133070e-01
2.253130e-01
1.796920e-01
1.875000e-01
1.964520e-01
2.065500e-01
2.177940e-01
1.738240e-01
1.810630e-01
1.893640e-01
1.987270e-01
2.091530e-01
2.369870e-01
2.497560e-01
2.650500e-01
2.828690e-01
3.032130e-01
2.317110e-01
2.437070e-01
2.582260e-01
2.752660e-01
2.948290e-01
2.253130e-01
2.364860e-01
2.501330e-01
2.662540e-01
2.848480e-01
2.177940e-01
2.280930e-01
2.407720e-01
2.558320e-01
2.732710e-01
2.091530e-01
2.185280e-01
2.301430e-01
2.439990e-01
2.600960e-01
3.032130e-01
3.215200e-01
3.440200e-01
3.707120e-01
4.015960e-01
2.948290e-01
3.116040e-01
3.329820e-01
3.589630e-01
3.895490e-01
2.848480e-01
2.999210e-01
3.199310e-01
3.448790e-01
3.747650e-01
2.732710e-01
2.864720e-01
3.048690e-01
3.284600e-01
3.572460e-01
2.600960e-01
2.712580e-01
2.877940e-01
3.097050e-01
3.369910e-01
4.015960e-01
4.333350e-01
4.688680e-01
5.081970e-01
5.513200e-01
3.895490e-01
4.195400e-01
4.537110e-01
4.920610e-01
5.345900e-01
3.747650e-01
4.019990e-01
4.339640e-01
4.706590e-01
5.120840e-01
3.572460e-01
3.807120e-01
4.096270e-01
4.439900e-01
4.838020e-01
3.369910e-01
3.556780e-01
3.806990e-01
4.120550e-01
4.497440e-01
5.513200e-01
6.109460e-01
6.693090e-01
7.264070e-01
7.822400e-01
5.345900e-01
5.947390e-01
6.532570e-01
7.101450e-01
7.654010e-01
5.120840e-01
5.715670e-01
6.284800e-01
6.828230e-01
7.345950e-01
4.838020e-01
5.414310e-01
5.949780e-01
6.444410e-01
6.898220e-01
4.497440e-01
5.043310e-01
5.527500e-01
5.950000e-01
6.310820e-01
7.822400e-01
8.643250e-01
9.377800e-01
1.002600e+00
1.058800e+00
7.654010e-01
8.516710e-01
9.286130e-01
9.962270e-01
1.054510e+00
7.345950e-01
8.241050e-01
9.033440e-01
9.723120e-01
1.031010e+00
6.898220e-01
7.816260e-01
8.619720e-01
9.308610e-01
9.882920e-01
6.310820e-01
7.242350e-01
8.044980e-01
8.718730e-01
9.263590e-01
1.058800e+00
1.099610e+00
1.130360e+00
1.151050e+00
1.161690e+00
1.054510e+00
1.099210e+00
1.135050e+00
1.162050e+00
1.180200e+00
1.031010e+00
1.078300e+00
1.117940e+00
1.149950e+00
1.174320e+00
9.882920e-01
1.036880e+00
1.079040e+00
1.114760e+00
1.144060e+00
9.263590e-01
9.749520e-01
1.018330e+00
1.056480e+00
1.089410e+00
1.161690e+00
1.129560e+00
1.085990e+00
1.030970e+00
9.645110e-01
1.180200e+00
1.149630e+00
1.110140e+00
1.061740e+00
1.004410e+00
1.174320e+00
1.145420e+00
1.110390e+00
1.069240e+00
1.021970e+00
1.144060e+00
1.116930e+00
1.086740e+00
1.053490e+00
1.017190e+00
1.089410e+00
1.064150e+00
1.039180e+00
1.014480e+00
9.900700e-01
9.645110e-01
8.628180e-01
7.530470e-01
6.351980e-01
5.092710e-01
1.004410e+00
9.181530e-01
8.203710e-01
7.110600e-01
5.902220e-01
1.021970e+00
9.493360e-01
8.633920e-01
7.641360e-01
6.515680e-01
1.017190e+00
9.563650e-01
8.821120e-01
7.944260e-01
6.933090e-01
9.900700e-01
9.392420e-01
8.765290e-01
8.019300e-01
7.154450e-01
5.092710e-01
4.211360e-01
3.515110e-01
3.003950e-01
2.677890e-01
5.902220e-01
4.977080e-01
4.218250e-01
3.625740e-01
3.199540e-01
6.515680e-01
5.595180e-01
4.811630e-01
4.165030e-01
3.655370e-01
6.933090e-01
6.065670e-01
5.295240e-01
4.621810e-01
4.045380e-01
7.154450e-01
6.388540e-01
5.669080e-01
4.996100e-01
4.369570e-01
2.677890e-01
2.388390e-01
2.186740e-01
2.072960e-01
2.047030e-01
3.199540e-01
2.833690e-01
2.557080e-01
2.369740e-01
2.271650e-01
3.655370e-01
3.226270e-01
2.884550e-01
2.630210e-01
2.463260e-01
4.045380e-01
3.566140e-01
3.169140e-01
2.854380e-01
2.621850e-01
4.369570e-01
3.853300e-01
3.410860e-01
3.042230e-01
2.747440e-01
2.047030e-01
2.025240e-01
1.976320e-01
1.900280e-01
1.797120e-01
2.271650e-01
2.209360e-01
2.126510e-01
2.023120e-01
1.899160e-01
2.463260e-01
2.361180e-01
2.246010e-01
2.117750e-01
1.976400e-01
2.621850e-01
2.480690e-01
2.334800e-01
2.184180e-01
2.028830e-01
2.747440e-01
2.567900e-01
2.392890e-01
2.222410e-01
2.056450e-01
1.797120e-01
1.721390e-01
1.646780e-01
1.573310e-01
1.500950e-01
1.899160e-01
1.804320e-01
1.714980e-01
1.631160e-01
1.552840e-01
1.976400e-01
1.865150e-01
1.763360e-01
1.671030e-01
1.588150e-01
2.028830e-01
1.903900e-01
1.791930e-01
1.692930e-01
1.606890e-01
2.056450e-01
1.920540e-01
1.800670e-01
1.696850e-01
1.609060e-01
1.500950e-01
1.431590e-01
1.368910e-01
1.312900e-01
1.263560e-01
1.552840e-01
1.478690e-01
1.412630e-01
1.354660e-01
1.304770e-01
1.588150e-01
1.510590e-01
1.442260e-01
1.383150e-01
1.333260e-01
1.606890e-01
1.527300e-01
1.457790e-01
1.398370e-01
1.349030e-01
1.609060e-01
1.528810e-01
1.459230e-01
1.400320e-01
1.352070e-01
8.939170e-02
9.289880e-02
9.610250e-02
9.900270e-02
1.015990e-01
8.740010e-02
9.065880e-02
9.361500e-02
9.626880e-02
9.862010e-02
8.530680e-02
8.831460e-02
9.103280e-02
9.346150e-02
9.560060e-02
8.311190e-02
8.586630e-02
8.835590e-02
9.058080e-02
9.254100e-02
8.081530e-02
8.331380e-02
8.558420e-02
8.762680e-02
8.944130e-02
1.015990e-01
1.040740e-01
1.064200e-01
1.086360e-01
1.107230e-01
9.862010e-02
1.008160e-01