<?xml version="1.0"?>
<VTKFile type="UnstructuredGrid" version="0.1" byte_order="LittleEndian" compressor="vtkZLibDataCompressor">
<UnstructuredGrid>
<Piece NumberOfPoints="10000" NumberOfCells="6400">
<Points>
<DataArray type="Float32" NumberOfComponents="3" format="ascii">
-3.360000e+00 0.000000e+00 0.000000e+00
-3.276000e+00 0.000000e+00 0.000000e+00
-3.192000e+00 0.000000e+00 0.000000e+00
-3.108000e+00 0.000000e+00 0.000000e+00
-3.024000e+00 0.000000e+00 0.000000e+00
-3.360000e+00 6.412500e-02 0.000000e+00
-3.276000e+00 6.412500e-02 0.000000e+00
-3.192000e+00 6.412500e-02 0.000000e+00
-3.108000e+00 6.412500e-02 0.000000e+00
-3.024000e+00 6.412500e-02 0.000000e+00
-3.360000e+00 1.282500e-01 0.000000e+00
-3.276000e+00 1.282500e-01 0.000000e+00
-3.192000e+00 1.282500e-01 0.000000e+00
-3.108000e+00 1.282500e-01 0.000000e+00
-3.024000e+00 1.282500e-01 0.000000e+00
-3.360000e+00 1.923750e-01 0.000000e+00
-3.276000e+00 1.923750e-01 0.000000e+00
-3.192000e+00 1.923750e-01 0.000000e+00
-3.108000e+00 1.923750e-01 0.000000e+00
-3.024000e+00 1.923750e-01 0.000000e+00
-3.360000e+00 2.565000e-01 0.000000e+00
-3.276000e+00 2.565000e-01 0.000000e+00
-3.192000e+00 2.565000e-01 0.000000e+00
-3.108000e+00 2.565000e-01 0.000000e+00
-3.024000e+00 2.565000e-01 0.000000e+00
-3.024000e+00 0.000000e+00 0.000000e+00
-2.940000e+00 0.000000e+00 0.000000e+00
-2.856000e+00 0.000000e+00 0.000000e+00
-2.772000e+00 0.000000e+00 0.000000e+00
-2.688000e+00 0.000000e+00 0.000000e+00
-3.024000e+00 6.412500e-02 0.000000e+00
-2.940000e+00 6.412500e-02 0.000000e+00
-2.856000e+00 6.412500e-02 0.000000e+00
-2.772000e+00 6.412500e-02 0.000000e+00
-2.688000e+00 6.412500e-02 0.000000e+00
-3.024000e+00 1.282500e-01 0.000000e+00
-2.940000e+00 1.282500e-01 0.000000e+00
-2.856000e+00 1.282500e-01 0.000000e+00
-2.772000e+00 1.282500e-01 0.000000e+00
-2.688000e+00 1.282500e-01 0.000000e+00
-3.024000e+00 1.923750e-01 0.000000e+00
-2.940000e+00 1.923750e-01 0.000000e+00
-2.856000e+00 1.923750e-01 0.000000e+00
-2.772000e+00 1.923750e-01 0.000000e+00
-2.688000e+00 1.923750e-01 0.000000e+00
-3.024000e+00 2.565000e-01 0.000000e+00
-2.940000e+00 2.565000e-01 0.000000e+00
-2.856000e+00 2.565000e-01 0.000000e+00
-2.772000e+00 2.565000e-01 0.000000e+00
-2.688000e+00 2.565000e-01 0.000000e+00
-2.688000e+00 0.000000e+00 0.000000e+00
-2.604000e+00 0.000000e+00 0.000000e+00
-2.520000e+00 0.000000e+00 0.000000e+00
-2.436000e+00 0.000000e+00 0.000000e+00
-2.352000e+00 0.000000e+00 0.000000e+00
-2.688000e+00 6.412500e-02 0.000000e+00
-2.604000e+00 6.412500e-02 0.000000e+00
-2.520000e+00 6.412500e-02 0.000000e+00
-2.436000e+00 6.412500e-02 0.000000e+00
-2.352000e+00 6.412500e-02 0.000000e+00
-2.688000e+00 1.282500e-01 0.000000e+00
-2.604000e+00 1.282500e-01 0.000000e+00
-2.520000e+00 1.282500e-01 0.000000e+00
-2.436000e+00 1.282500e-01 0.000000e+00
-2.352000e+00 1.282500e-01 0.000000e+00
-2.688000e+00 1.923750e-01 0.000000e+00
-2.604000e+00 1.923750e-01 0.000000e+00
-2.520000e+00 1.923750e-01 0.000000e+00
-2.436000e+00 1.923750e-01 0.000000e+00
-2.352000e+00 1.923750e-01 0.000000e+00
-2.688000e+00 2.565000e-01 0.000000e+00
-2.604000e+00 2.565000e-01 0.000000e+00
-2.520000e+00 2.565000e-01 0.000000e+00
-2.436000e+00 2.565000e-01 0.000000e+00
-2.352000e+00 2.565000e-01 0.000000e+00
-2.352000e+00 0.000000e+00 0.000000e+00
-2.268000e+00 0.000000e+00 0.000000e+00
-2.184000e+00 0.000000e+00 0.000000e+00
-2.100000e+00 0.000000e+00 0.000000e+00
-2.016000e+00 0.000000e+00 0.000000e+00
-2.352000e+00 6.412500e-02 0.000000e+00
-2.268000e+00 6.412500e-02 0.000000e+00
-2.184000e+00 6.412500e-02 0.000000e+00
-2.100000e+00 6.412500e-02 0.000000e+00
-2.016000e+00 6.412500e-02 0.000000e+00
-2.352000e+00 1.282500e-01 0.000000e+00
-2.268000e+00 1.282500e-01 0.000000e+00
-2.184000e+00 1.282500e-01 0.000000e+00
-2.100000e+00 1.282500e-01 0.000000e+00
-2.016000e+00 1.282500e-01 0.000000e+00
-2.352000e+00 1.923750e-01 0.000000e+00
-2.268000e+00 1.923750e-01 0.000000e+00
-2.184000e+00 1.923750e-01 0.000000e+00
-2.100000e+00 1.923750e-01 0.000000e+00
-2.016000e+00 1.923750e-01 0.000000e+00
-2.352000e+00 2.565000e-01 0.000000e+00
-2.268000e+00 2.565000e-01 0.000000e+00
-2.184000e+00 2.565000e-01 0.000000e+00
-2.100000e+00 2.565000e-01 0.000000e+00
-2.016000e+00 2.565000e-01 0.000000e+00
-2.016000e+00 0.000000e+00 0.000000e+00
-1.932000e+00 0.000000e+00 0.000000e+00
-1.848000e+00 0.000000e+00 0.000000e+00
-1.764000e+00 0.000000e+00 0.000000e+00
-1.680000e+00 0.000000e+00 0.000000e+00
-2.016000e+00 6.412500e-02 0.000000e+00
-1.932000e+00 6.412500e-02 0.000000e+00
-1.848000e+00 6.412500e-02 0.000000e+00
-1.764000e+00 6.412500e-02 0.000000e+00
-1.680000e+00 6.412500e-02 0.000000e+00
-2.016000e+00 1.282500e-01 0.000000e+00
-1.932000e+00 1.282500e-01 0.000000e+00
-1.848000e+00 1.282500e-01 0.000000e+00
-1.764000e+00 1.282500e-01 0.000000e+00
-1.680000e+00 1.282500e-01 0.000000e+00
-2.016000e+00 1.923750e-01 0.000000e+00
-1.932000e+00 1.923750e-01 0.000000e+00
-1.848000e+00 1.923750e-01 0.000000e+00
-1.764000e+00 1.923750e-01 0.000000e+00
-1.680000e+00 1.923750e-01 0.000000e+00
-2.016000e+00 2.565000e-01 0.000000e+00
-1.932000e+00 2.565000e-01 0.000000e+00
-1.848000e+00 2.565000e-01 0.000000e+00
-1.764000e+00 2.565000e-01 0.000000e+00
-1.680000e+00 2.565000e-01 0.000000e+00
-1.680000e+00 0.000000e+00 0.000000e+00
-1.596000e+00 0.000000e+00 0.000000e+00
-1.512000e+00 0.000000e+00 0.000000e+00
-1.428000e+00 0.000000e+00 0.000000e+00
-1.344000e+00 0.000000e+00 0.000000e+00
-1.680000e+00 6.412500e-02 0.000000e+00
-1.596000e+00 6.412500e-02 0.000000e+00
-1.512000e+00 6.412500e-02 0.000000e+00
-1.428000e+00 6.412500e-02 0.000000e+00
-1.344000e+00 6.412500e-02 0.000000e+00
-1.680000e+00 1.282500e-01 0.000000e+00
-1.596000e+00 1.282500e-01 0.000000e+00
-1.512000e+00 1.282500e-01 0.000000e+00
-1.428000e+00 1.282500e-01 0.000000e+00
-1.344000e+00 1.282500e-01 0.000000e+00
-1.680000e+00 1.923750e-01 0.000000e+00
-1.596000e+00 1.923750e-01 0.000000e+00
-1.512000e+00 1.923750e-01 0.000000e+00
-1.428000e+00 1.923750e-01 0.000000e+00
-1.344000e+00 1.923750e-01 0.000000e+00
-1.680000e+00 2.565000e-01 0.000000e+00
-1.596000e+00 2.565000e-01 0.000000e+00
-1.512000e+00 2.565000e-01 0.000000e+00
-1.428000e+00 2.565000e-01 0.000000e+00
-1.344000e+00 2.565000e-01 0.000000e+00
-1.344000e+00 0.000000e+00 0.000000e+00
-1.260000e+00 0.000000e+00 0.000000e+00
-1.176000e+00 0.000000e+00 0.000000e+00
-1.092000e+00 0.000000e+00 0.000000e+00
-1.008000e+00 0.000000e+00 0.000000e+00
-1.344000e+00 6.412500e-02 0.000000e+00
-1.260000e+00 6.412500e-02 0.000000e+00
-1.176000e+00 6.412500e-02 0.000000e+00
-1.092000e+00 6.412500e-02 0.000000e+00
-1.008000e+00 6.412500e-02 0.000000e+00
-1.344000e+00 1.282500e-01 0.000000e+00
-1.260000e+00 1.282500e-01 0.000000e+00
-1.176000e+00 1.282500e-01 0.000000e+00
-1.092000e+00 1.282500e-01 0.000000e+00
-1.008000e+00 1.282500e-01 0.000000e+00
-1.344000e+00 1.923750e-01 0.000000e+00
-1.260000e+00 1.923750e-01 0.000000e+00
-1.176000e+00 1.923750e-01 0.000000e+00
-1.092000e+00 1.923750e-01 0.000000e+00
-1.008000e+00 1.923750e-01 0.000000e+00
-1.344000e+00 2.565000e-01 0.000000e+00
-1.260000e+00 2.565000e-01 0.000000e+00
-1.176000e+00 2.565000e-01 0.000000e+00
-1.092000e+00 2.565000e-01 0.000000e+00
-1.008000e+00 2.565000e-01 0.000000e+00
-1.008000e+00 0.000000e+00 0.000000e+00
-9.240000e-01 0.000000e+00 0.000000e+00
-8.400000e-01 0.000000e+00 0.000000e+00
-7.560000e-01 0.000000e+00 0.000000e+00
-6.720000e-01 0.000000e+00 0.000000e+00
-1.008000e+00 6.412500e-02 0.000000e+00
-9.240000e-01 6.412500e-02 0.000000e+00
-8.400000e-01 6.412500e-02 0.000000e+00
-7.560000e-01 6.412500e-02 0.000000e+00
-6.720000e-01 6.412500e-02 0.000000e+00
-1.008000e+00 1.282500e-01 0.000000e+00
-9.240000e-01 1.282500e-01 0.000000e+00
-8.400000e-01 1.282500e-01 0.000000e+00
-7.560000e-01 1.282500e-01 0.000000e+00
-6.720000e-01 1.282500e-01 0.000000e+00
-1.008000e+00 1.923750e-01 0.000000e+00
-9.240000e-01 1.923750e-01 0.000000e+00
-8.400000e-01 1.923750e-01 0.000000e+00
-7.560000e-01 1.923750e-01 0.000000e+00
-6.720000e-01 1.923750e-01 0.000000e+00
-1.008000e+00 2.565000e-01 0.000000e+00
-9.240000e-01 2.565000e-01 0.000000e+00
-8.400000e-01 2.565000e-01 0.000000e+00
-7.560000e-01 2.565000e-01 0.000000e+00
-6.720000e-01 2.565000e-01 0.000000e+00
-6.720000e-01 0.000000e+00 0.000000e+00
-5.880000e-01 0.000000e+00 0.000000e+00
-5.040000e-01 0.000000e+00 0.000000e+00
-4.200000e-01 0.000000e+00 0.000000e+00
-3.360000e-01 0.000000e+00 0.000000e+00
-6.720000e-01 6.412500e-02 0.000000e+00
-5.880000e-01 6.412500e-02 0.000000e+00
-5.040000e-01 6.412500e-02 0.000000e+00
-4.200000e-01 6.412500e-02 0.000000e+00
-3.360000e-01 6.412500e-02 0.000000e+00
-6.720000e-01 1.282500e-01 0.000000e+00
-5.880000e-01 1.282500e-01 0.000000e+00
-5.040000e-01 1.282500e-01 0.000000e+00
-4.200000e-01 1.282500e-01 0.000000e+00
-3.360000e-01 1.282500e-01 0.000000e+00
-6.720000e-01 1.923750e-01 0.000000e+00
-5.880000e-01 1.923750e-01 0.000000e+00
-5.040000e-01 1.923750e-01 0.000000e+00
-4.200000e-01 1.923750e-01 0.000000e+00
-3.360000e-01 1.923750e-01 0.000000e+00
-6.720000e-01 2.565000e-01 0.000000e+00
-5.880000e-01 2.565000e-01 0.000000e+00
-5.040000e-01 2.565000e-01 0.000000e+00
-4.200000e-01 2.565000e-01 0.000000e+00
-3.360000e-01 2.565000e-01 0.000000e+00
-3.360000e-01 0.000000e+00 0.000000e+00
-2.520000e-01 0.000000e+00 0.000000e+00
-1.680000e-01 0.000000e+00 0.000000e+00
-8.400000e-02 0.000000e+00 0.000000e+00
-4.440890e-16 0.000000e+00 0.000000e+00
-3.360000e-01 6.412500e-02 0.000000e+00
-2.520000e-01 6.412500e-02 0.000000e+00
-1.680000e-01 6.412500e-02 0.000000e+00
-8.400000e-02 6.412500e-02 0.000000e+00
-4.440890e-16 6.412500e-02 0.000000e+00
-3.360000e-01 1.282500e-01 0.000000e+00
-2.520000e-01 1.282500e-01 0.000000e+00
-1.680000e-01 1.282500e-01 0.000000e+00
-8.400000e-02 1.282500e-01 0.000000e+00
-4.440890e-16 1.282500e-01 0.000000e+00
-3.360000e-01 1.923750e-01 0.000000e+00
-2.520000e-01 1.923750e-01 0.000000e+00
-1.680000e-01 1.923750e-01 0.000000e+00
[...]
<PointData>
<DataArray type="Float32" Name="V1" format="ascii">
0.000000e+00
0.000000e+00
0.000000e+00
0.000000e+00
0.000000e+00
6.347820e-02
5.970540e-02
5.545480e-02
5.072630e-02
4.552010e-02
1.013490e-01
9.784670e-02
9.308390e-02
8.706020e-02
7.977560e-02
1.136110e-01
1.144240e-01
1.128870e-01
1.090020e-01
1.027660e-01
1.002660e-01
1.094370e-01
1.148650e-01
1.165500e-01
1.144930e-01
0.000000e+00
0.000000e+00
0.000000e+00
0.000000e+00
0.000000e+00
4.552010e-02
3.976110e-02
3.532370e-02
3.220800e-02
3.041380e-02
7.977560e-02
7.139640e-02
6.475370e-02
5.984760e-02
5.667790e-02
1.027660e-01
9.490590e-02
8.829010e-02
8.291880e-02
7.879220e-02
1.144930e-01
1.102900e-01
1.059330e-01
1.014220e-01
9.675680e-02
0.000000e+00
0.000000e+00
0.000000e+00
0.000000e+00
0.000000e+00
3.041380e-02
2.881510e-02
2.750900e-02
2.649550e-02
2.577460e-02
5.667790e-02
5.393790e-02
5.174030e-02
5.008500e-02
4.897190e-02
7.879220e-02
7.536840e-02
7.269370e-02
7.076830e-02
6.959190e-02
9.675680e-02
9.310650e-02
9.036940e-02
8.854540e-02
8.763460e-02
0.000000e+00
0.000000e+00
0.000000e+00
0.000000e+00
0.000000e+00
2.577460e-02
2.521060e-02
2.495640e-02
2.501210e-02
2.537760e-02
4.897190e-02
4.815500e-02
4.785160e-02
4.806190e-02
4.878570e-02
6.959190e-02
6.883310e-02
6.868550e-02
6.914930e-02
7.022430e-02
8.763460e-02
8.724500e-02
8.745820e-02
8.827430e-02
8.969330e-02
0.000000e+00
0.000000e+00
0.000000e+00
0.000000e+00
0.000000e+00
2.537760e-02
2.587840e-02
2.656260e-02
2.743020e-02
2.848140e-02
4.878570e-02
4.977010e-02
5.109340e-02
5.275590e-02
5.475740e-02
7.022430e-02
7.167510e-02
7.359270e-02
7.597700e-02
7.882810e-02
8.969330e-02
9.159350e-02
9.406020e-02
9.709350e-02
1.006930e-01
0.000000e+00
0.000000e+00
0.000000e+00
0.000000e+00
0.000000e+00
2.848140e-02
2.970870e-02
3.121950e-02
3.301380e-02
3.509150e-02
5.475740e-02
5.707510e-02
5.988460e-02
6.318610e-02
6.697950e-02
7.882810e-02
8.209900e-02
8.599530e-02
9.051700e-02
9.566400e-02
1.006930e-01
1.047810e-01
1.095520e-01
1.150060e-01
1.211450e-01
0.000000e+00
0.000000e+00
0.000000e+00
0.000000e+00
0.000000e+00
3.509150e-02
3.740090e-02
4.014450e-02
4.332230e-02
4.693440e-02
6.697950e-02
7.118170e-02
7.612570e-02
8.181150e-02
8.823900e-02
9.566400e-02
1.013430e-01
1.079440e-01
1.154670e-01
1.239140e-01
1.211450e-01
1.278840e-01
1.355990e-01
1.442900e-01
1.539590e-01
0.000000e+00
0.000000e+00
0.000000e+00
0.000000e+00
0.000000e+00
4.693440e-02
5.081420e-02
5.542480e-02
6.076630e-02
6.683870e-02
8.823900e-02
9.512790e-02
1.032350e-01
1.125600e-01
1.231030e-01
1.239140e-01
1.329410e-01
1.434300e-01
1.553810e-01
1.687930e-01
1.539590e-01
1.642540e-01
1.760110e-01
1.892290e-01
2.039100e-01
0.000000e+00
0.000000e+00
0.000000e+00
0.000000e+00
0.000000e+00
6.683870e-02
7.311130e-02
8.054250e-02
8.913220e-02
9.888060e-02
1.231030e-01
1.339910e-01
1.467730e-01
1.614480e-01
1.780180e-01
1.687930e-01
1.826390e-01
1.986910e-01
2.169480e-01
2.374120e-01
2.039100e-01
2.190560e-01
2.362960e-01
2.556320e-01
2.770620e-01
0.000000e+00
0.000000e+00
0.000000e+00
0.000000e+00
0.000000e+00
9.888060e-02
1.088240e-01
1.200810e-01
1.326540e-01
1.465410e-01
1.780180e-01
1.949820e-01
2.140610e-01
2.352540e-01
2.585630e-01
2.374120e-01
2.584740e-01
2.819380e-01
3.078020e-01
3.360680e-01
2.770620e-01
2.993010e-01
3.237130e-01
3.502970e-01
3.790540e-01
0.000000e+00
0.000000e+00
0.000000e+00
0.000000e+00
0.000000e+00
1.465410e-01
1.617880e-01
1.770620e-01
1.923620e-01
2.076870e-01
2.585630e-01
2.843010e-01
3.101640e-01
3.361550e-01
3.622710e-01
3.360680e-01
3.675380e-01
3.993080e-01
4.313790e-01
4.637500e-01
3.790540e-01
4.114990e-01
4.444930e-01
4.780350e-01
5.121260e-01
0.000000e+00
0.000000e+00
0.000000e+00
0.000000e+00
0.000000e+00
2.076870e-01
2.263740e-01
2.418690e-01
2.541730e-01
2.632860e-01
3.622710e-01
3.941590e-01
4.213330e-01
4.437930e-01
4.615390e-01
4.637500e-01
5.033540e-01
5.383910e-01
5.688590e-01
5.947590e-01
5.121260e-01
5.539610e-01
5.930430e-01
6.293710e-01
6.629460e-01
0.000000e+00
0.000000e+00
0.000000e+00
0.000000e+00
0.000000e+00
2.632860e-01
2.712400e-01
2.737050e-01
2.706810e-01
2.621680e-01
4.615390e-01
4.780170e-01
4.859610e-01
4.853710e-01
4.762470e-01
5.947590e-01
6.203300e-01
6.367660e-01
6.440690e-01
6.422370e-01
6.629460e-01
6.981790e-01
7.261220e-01
7.467750e-01
7.601370e-01
0.000000e+00
0.000000e+00
0.000000e+00
0.000000e+00
0.000000e+00
2.621680e-01
2.406560e-01
2.170980e-01
1.914950e-01
1.638460e-01
4.762470e-01
4.460250e-01
4.108190e-01
3.706310e-01
3.254590e-01
6.422370e-01
6.161070e-01
5.811640e-01
5.374090e-01
4.848400e-01
7.601370e-01
7.509020e-01
7.281320e-01
6.918280e-01
6.419890e-01
0.000000e+00
0.000000e+00
0.000000e+00
0.000000e+00
0.000000e+00
1.638460e-01
1.334650e-01
1.066980e-01
8.354490e-02
6.400520e-02
3.254590e-01
2.715080e-01
2.220390e-01
1.770540e-01
1.365510e-01
4.848400e-01
4.141280e-01
3.460230e-01
2.805260e-01
2.176370e-01
6.419890e-01
5.613250e-01
4.786490e-01
3.939620e-01
3.072640e-01
0.000000e+00
0.000000e+00
0.000000e+00
0.000000e+00
0.000000e+00
6.400520e-02
5.066510e-02
3.735380e-02
2.407130e-02
1.081750e-02
1.365510e-01
1.078640e-01
8.035810e-02
5.403350e-02
2.889020e-02
2.176370e-01
1.715960e-01
1.290130e-01
8.988680e-02
5.421810e-02
3.072640e-01
2.418630e-01
1.833180e-01
1.316310e-01
8.680130e-02
0.000000e+00
0.000000e+00
0.000000e+00
0.000000e+00
0.000000e+00
1.081750e-02
2.237820e-03
-3.961470e-03
-7.780400e-03
-9.218960e-03
2.889020e-02
1.252690e-02
8.536410e-04
-6.129640e-03
-8.422920e-03
5.421810e-02
3.086730e-02
1.444530e-02
4.952290e-03
2.388120e-03
8.680130e-02
5.725900e-02
3.681360e-02
2.546540e-02
2.321420e-02
0.000000e+00
0.000000e+00
0.000000e+00
0.000000e+00
0.000000e+00
-9.218960e-03
-1.043680e-02
-1.019090e-02
-8.481510e-03
-5.308460e-03
-8.422920e-03
-1.025500e-02
-9.687620e-03
-6.720850e-03
-1.354660e-03
2.388120e-03
5.453480e-04
1.509970e-03
5.281980e-03
1.186140e-02
2.321420e-02
2.196420e-02
2.340180e-02
2.752700e-02
3.433970e-02
0.000000e+00
0.000000e+00
0.000000e+00
0.000000e+00
0.000000e+00
-5.308460e-03
-3.521910e-03
-1.945330e-03
-5.787090e-04
5.779520e-04
-1.354660e-03
1.670620e-03
4.244140e-03
6.365910e-03
8.035920e-03
1.186140e-02
1.557760e-02
1.856840e-02
2.083380e-02
2.237390e-02
3.433970e-02
3.819900e-02
4.102750e-02
4.282510e-02
4.359190e-02
0.000000e+00
0.000000e+00
0.000000e+00
0.000000e+00
0.000000e+00
5.779520e-04
1.730130e-03
1.519120e-03
-5.510110e-05
-2.992520e-03
8.035920e-03
9.507930e-03
9.017400e-03
6.564320e-03
2.148690e-03
2.237390e-02
2.333340e-02
2.249490e-02
1.985830e-02
1.542360e-02
4.359190e-02
4.320650e-02
4.195150e-02
3.982670e-02
3.683220e-02
1.002660e-01
1.094370e-01
1.148650e-01
1.165500e-01
1.144930e-01
9.945850e-02
1.078380e-01
1.138360e-01
1.174520e-01
1.186850e-01
9.848610e-02
1.058950e-01
1.119830e-01
1.167480e-01
1.201920e-01
9.734850e-02
1.036090e-01
1.093060e-01
1.144400e-01
1.190120e-01
9.604590e-02
1.009790e-01
1.058060e-01
1.105280e-01
1.151450e-01
1.144930e-01
1.102900e-01
1.059330e-01
1.014220e-01
9.675680e-02
1.186850e-01
1.173860e-01
1.153220e-01
1.124950e-01
1.089040e-01
1.201920e-01
1.211450e-01
1.209560e-01
1.196220e-01
1.171450e-01
1.190120e-01
1.215680e-01
1.228320e-01
1.228030e-01
1.214810e-01
1.151450e-01
1.186540e-01
1.209520e-01
1.220370e-01
1.219110e-01
9.675680e-02
9.310650e-02
9.036940e-02
8.854540e-02
8.763460e-02
1.089040e-01
1.057620e-01
1.034280e-01
1.019010e-01
1.011800e-01
1.171450e-01
1.146720e-01
1.128590e-01
1.117070e-01
1.112140e-01
1.214810e-01
1.198350e-01
1.186620e-01
1.179630e-01
1.177370e-01
1.219110e-01
1.212510e-01
1.208380e-01
1.206700e-01
1.207470e-01
8.763460e-02
8.724500e-02
8.745820e-02
8.827430e-02
8.969330e-02
1.011800e-01
1.010560e-01
1.015390e-01
1.026290e-01
1.043250e-01
1.112140e-01
1.113410e-01
1.120560e-01
1.133590e-01
1.152510e-01
1.177370e-01
1.180990e-01
1.190090e-01
1.204670e-01
1.224720e-01
1.207470e-01
1.213300e-01
1.223980e-01
1.239500e-01
1.259880e-01
8.969330e-02
9.159350e-02
9.406020e-02
9.709350e-02
1.006930e-01
1.043250e-01
1.065060e-01
1.092840e-01
1.126580e-01
1.166290e-01
1.152510e-01
1.176180e-01
1.205880e-01
1.241590e-01
1.283320e-01
1.224720e-01
1.249310e-01
1.279720e-01
1.315950e-01
1.358000e-01
1.259880e-01
1.284430e-01
1.314360e-01
1.349660e-01
1.390340e-01
1.006930e-01
1.047810e-01
1.095520e-01
1.150060e-01
1.211450e-01
1.166290e-01
1.211060e-01
1.262740e-01
1.321340e-01
1.386860e-01
1.283320e-01
1.330080e-01
1.383640e-01
1.444020e-01
1.511200e-01
1.358000e-01
1.404850e-01
1.458220e-01
1.518100e-01
1.584480e-01
1.390340e-01
1.435390e-01
1.486470e-01
1.543580e-01
1.606700e-01
1.211450e-01
1.278840e-01
1.355990e-01
1.442900e-01
1.539590e-01
1.386860e-01
1.458040e-01
1.538830e-01
1.629250e-01
1.729270e-01
1.511200e-01
1.583620e-01
1.665320e-01
1.756310e-01
1.856590e-01
1.584480e-01
1.655570e-01
1.735440e-01
1.824090e-01
1.921530e-01
1.606700e-01
1.673890e-01
1.749190e-01
1.832600e-01
1.924120e-01
1.539590e-01
1.642540e-01
1.760110e-01
1.892290e-01
2.039100e-01
1.729270e-01
1.834570e-01
1.954130e-01
2.087950e-01
2.236030e-01
1.856590e-01
1.961190e-01
2.079590e-01
2.211780e-01
2.357760e-01
1.921530e-01
2.022400e-01
2.136490e-01
2.263790e-01
2.404300e-01
1.924120e-01
2.018210e-01
2.124830e-01
2.243970e-01
2.375640e-01
2.039100e-01
2.190560e-01
2.362960e-01
2.556320e-01
2.770620e-01
2.236030e-01
2.386630e-01
2.558190e-01
2.750710e-01
2.964190e-01
2.357760e-01
2.504310e-01
2.671900e-01
2.860510e-01
3.070150e-01
2.404300e-01
2.543620e-01
2.704090e-01
2.885710e-01
3.088480e-01
2.375640e-01
2.504540e-01
2.654760e-01
2.826310e-01
3.019190e-01
2.770620e-01
2.993010e-01
3.237130e-01
3.502970e-01
3.790540e-01
2.964190e-01
3.182500e-01
3.424330e-01
3.689700e-01
3.978600e-01
3.070150e-01
3.281130e-01
3.517660e-01
3.779740e-01
4.067350e-01
3.088480e-01
3.288930e-01
3.517130e-01
3.773080e-01
4.056790e-01
3.019190e-01
3.205870e-01
3.422720e-01
3.669740e-01
3.946910e-01
3.790540e-01
4.114990e-01
4.444930e-01
4.780350e-01
5.121260e-01
3.978600e-01
4.303220e-01
4.637300e-01
4.980850e-01
5.333870e-01
4.067350e-01
4.388890e-01
4.723700e-01
5.071790e-01
5.433140e-01
4.056790e-01
4.372020e-01
4.704140e-01
5.053160e-01
5.419070e-01
3.946910e-01
4.252600e-01
4.578620e-01
4.924980e-01
5.291660e-01
5.121260e-01
5.539610e-01
5.930430e-01
6.293710e-01
6.629460e-01
5.333870e-01
5.776240e-01
6.195130e-01
6.590550e-01
6.962500e-01
5.433140e-01
5.896930e-01
6.340280e-01
6.763180e-01
7.165640e-01
5.419070e-01
5.901690e-01
6.365870e-01
6.811600e-01
7.238890e-01
5.291660e-01
5.790520e-01
6.271890e-01
6.735800e-01
7.182230e-01
6.629460e-01
6.981790e-01
7.261220e-01
7.467750e-01
7.601370e-01
6.962500e-01
7.382220e-01
7.734460e-01
8.019240e-01
8.236550e-01
7.165640e-01
7.646950e-01
8.063500e-01
8.415290e-01
8.702320e-01
7.238890e-01
7.776010e-01
8.248350e-01
8.655910e-01
8.998680e-01
7.182230e-01
7.769380e-01
8.289000e-01
8.741080e-01
9.125630e-01
7.601370e-01
7.509020e-01
7.281320e-01
6.918280e-01
6.419890e-01
8.236550e-01
8.266140e-01
8.170830e-01
7.950630e-01
7.605540e-01
8.702320e-01
8.826390e-01
8.836760e-01
8.733430e-01
8.516400e-01
8.998680e-01
9.189770e-01
9.279100e-01
9.266670e-01
9.152480e-01
9.125630e-01
9.356280e-01
9.497850e-01
9.550350e-01
9.513770e-01
6.419890e-01
5.613250e-01
4.786490e-01
3.939620e-01
3.072640e-01
7.605540e-01
6.883350e-01
6.066030e-01
5.153560e-01
4.145960e-01
8.516400e-01
7.895190e-01
7.128320e-01
6.215790e-01
5.157600e-01
9.152480e-01
8.648770e-01
7.973380e-01
7.126320e-01
6.107570e-01
9.513770e-01
9.144090e-01
8.601210e-01
7.885130e-01
6.995850e-01
3.072640e-01
2.418630e-01
1.833180e-01
1.316310e-01
8.680130e-02
4.145960e-01
3.296470e-01
2.538870e-01
1.873160e-01
1.299350e-01
5.157600e-01
4.175380e-01
3.285630e-01
2.488340e-01
1.783530e-01
6.107570e-01
5.055370e-01
4.073460e-01
3.161860e-01
2.320550e-01
6.995850e-01
5.936420e-01
4.902370e-01
3.893700e-01
2.910410e-01
8.680130e-02
5.725900e-02
3.681360e-02
2.546540e-02
2.321420e-02
1.299350e-01
9.304740e-02
6.700110e-02
5.179610e-02
4.743260e-02
1.783530e-01
1.334330e-01
1.009550e-01
8.091960e-02
7.332680e-02
2.320550e-01
1.784150e-01
1.386750e-01
1.128360e-01
1.008970e-01
2.910410e-01
2.279930e-01
1.801610e-01
1.475440e-01
1.301430e-01
2.321420e-02
2.196420e-02
2.340180e-02
2.752700e-02
3.433970e-02
4.743260e-02
4.484020e-02
4.542350e-02
4.918230e-02
5.611680e-02
7.332680e-02
6.825230e-02
6.707090e-02
6.978260e-02
7.638740e-02
1.008970e-01
9.220040e-02
8.834400e-02
8.932760e-02
9.515130e-02
1.301430e-01
1.166850e-01
1.092430e-01
1.078180e-01
1.124090e-01
3.433970e-02
3.819900e-02
4.102750e-02
4.282510e-02
4.359190e-02
5.611680e-02
5.975110e-02
6.211330e-02
6.320350e-02
6.302160e-02
7.638740e-02
7.962080e-02
8.138820e-02
8.168970e-02
8.052530e-02
9.515130e-02
9.780800e-02
9.885220e-02
9.828380e-02
9.610290e-02
1.124090e-01
1.143130e-01
1.145050e-01
1.129860e-01
1.097540e-01
4.359190e-02
4.320650e-02
4.195150e-02
3.982670e-02
3.683220e-02
6.302160e-02
6.208460e-02
6.033770e-02
5.778090e-02
5.441430e-02
8.052530e-02
7.894140e-02
7.664850e-02
7.364650e-02
6.993560e-02
9.610290e-02
9.377700e-02
9.088390e-02
8.742360e-02
8.339590e-02
1.097540e-01
1.065920e-01
1.030440e-01
9.911200e-02
9.479540e-02
9.604590e-02
1.009790e-01
1.058060e-01
1.105280e-01
1.151450e-01
9.458900e-02
9.900320e-02
1.033690e-01
1.076860e-01
1.119540e-01
9.299440e-02
9.702650e-02
1.009970e-01
1.049060e-01
1.087530e-01
9.126190e-02
9.504860e-02
9.869090e-02
1.021890e-01
1.055420e-01
8.939170e-02
9.306930e-02
9.645020e-02
9.953430e-02
1.023220e-01
1.151450e-01
1.186540e-01
1.209520e-01
1.220370e-01
1.219110e-01
1.119540e-01
1.154890e-01
1.180610e-01
1.196700e-01
1.203150e-01
1.087530e-01
1.121440e-01
1.148040e-01
1.167350e-01
1.179340e-01
1.055420e-01
1.086180e-01
1.111810e-01
1.132320e-01
1.147700e-01
1.023220e-01
1.049120e-01
1.071920e-01
1.091620e-01
1.108230e-01
1.219110e-01
1.212510e-01
1.208380e-01
1.206700e-01
1.207470e-01
1.203150e-01
1.203840e-01
1.205740e-01
1.208840e-01
1.213150e-01
1.179340e-01
1.185780e-01
1.192550e-01
1.199660e-01
1.207120e-01
1.147700e-01
1.158330e-01
1.168810e-01
1.179160e-01
1.189370e-01
1.108230e-01
1.121490e-01
1.134530e-01
1.147330e-01
1.159910e-01
1.207470e-01
1.213300e-01
1.223980e-01
1.239500e-01
1.259880e-01
1.213150e-01
1.221310e-01
1.233640e-01
1.250120e-01
1.270760e-01
1.207120e-01
1.217430e-01
1.231260e-01
1.248610e-01
1.269470e-01
1.189370e-01
1.201650e-01
1.216840e-01
1.234960e-01
1.256000e-01
1.159910e-01
1.173960e-01
1.190390e-01
1.209180e-01
1.230350e-01
1.259880e-01
1.284430e-01
1.314360e-01
1.349660e-01
1.390340e-01
1.270760e-01
1.295180e-01
1.324560e-01
1.358890e-01
1.398180e-01
1.269470e-01
1.293710e-01
1.322490e-01
1.355810e-01
1.393660e-01
1.256000e-01
1.280010e-01
1.308140e-01
1.340390e-01
1.376760e-01
1.230350e-01
1.254090e-01
1.281520e-01
1.312660e-01
1.347500e-01
1.390340e-01
1.435390e-01
1.486470e-01
1.543580e-01
1.606700e-01
1.398180e-01
1.441410e-01
1.490330e-01
1.544930e-01
1.605210e-01
1.393660e-01
1.435020e-01
1.481730e-01
1.533790e-01
1.591200e-01
1.376760e-01
1.416220e-01
1.460680e-01
1.510160e-01
1.564660e-01
1.347500e-01
1.385000e-01
1.427180e-01
1.474050e-01
1.525590e-01
1.606700e-01
1.673890e-01
1.749190e-01
1.832600e-01
1.924120e-01
1.605210e-01
1.669040e-01
1.740600e-01
1.819900e-01
1.906940e-01
1.591200e-01
1.651630e-01
1.719430e-01
1.794580e-01
1.877090e-01
1.564660e-01
1.621680e-01
1.685680e-01
1.756640e-01
1.834580e-01
1.525590e-01
1.579190e-01
1.639360e-01
1.706090e-01
1.779390e-01
1.924120e-01
2.018210e-01
2.124830e-01
2.243970e-01
2.375640e-01
1.906940e-01
1.995920e-01
2.097110e-01
2.210520e-01
2.336140e-01
1.877090e-01
1.960890e-01
2.056510e-01
2.163940e-01
2.283180e-01
1.834580e-01
1.913140e-01
2.003030e-01
2.104230e-01
2.216760e-01
1.779390e-01
1.852660e-01
1.936660e-01
2.031400e-01
2.136870e-01
2.375640e-01
2.504540e-01
2.654760e-01
2.826310e-01
3.019190e-01
2.336140e-01
2.457570e-01
2.600860e-01
2.765990e-01
2.952980e-01
2.283180e-01
2.396860e-01
2.532540e-01
2.690220e-01
2.869920e-01
2.216760e-01
2.322380e-01
2.449800e-01
2.599000e-01
2.769980e-01
2.136870e-01
2.234160e-01
2.352640e-01
2.492320e-01
2.653190e-01
3.019190e-01
3.205870e-01
3.422720e-01
3.669740e-01
3.946910e-01
2.952980e-01
3.128590e-01
3.337390e-01
3.579380e-01
3.854560e-01
2.869920e-01
3.032480e-01
3.231090e-01
3.465750e-01
3.736450e-01
2.769980e-01
2.917530e-01
3.103810e-01
3.328840e-01
3.592610e-01
2.653190e-01
2.783740e-01
2.955560e-01
3.168650e-01
3.423010e-01
3.946910e-01
4.252600e-01
4.578620e-01
4.924980e-01
5.291660e-01
3.854560e-01
4.151160e-01
4.472110e-01
4.817430e-01
5.187100e-01
3.736450e-01
4.018320e-01
4.328700e-01
4.667580e-01
5.034970e-01
3.592610e-01
3.854110e-01
4.148390e-01
4.475450e-01
4.835280e-01
3.423010e-01
3.658510e-01
3.931180e-01
4.241020e-01
4.588030e-01
5.291660e-01
5.790520e-01
6.271890e-01
6.735800e-01
7.182230e-01
5.187100e-01
5.704100e-01
6.201840e-01
6.680340e-01
7.139580e-01
5.034970e-01
5.562790e-01
6.067150e-01
6.548040e-01
7.005470e-01
4.835280e-01
5.366610e-01
5.867820e-01
6.338920e-01
6.779900e-01
4.588030e-01
5.115530e-01
5.603840e-01
6.052950e-01
6.462870e-01
7.182230e-01
7.769380e-01
8.289000e-01
8.741080e-01
9.125630e-01
7.139580e-01
7.778160e-01
8.342250e-01
8.831830e-01
9.246920e-01
7.005470e-01
7.683110e-01
8.280170e-01
8.796660e-01
9.232570e-01
6.779900e-01
7.484230e-01
8.102780e-01
8.635560e-01
9.082560e-01
6.462870e-01
7.181510e-01
7.810060e-01
8.348530e-01
8.796910e-01
9.125630e-01
9.356280e-01
9.497850e-01
9.550350e-01
9.513770e-01
9.246920e-01
9.512280e-01
9.689960e-01
9.779950e-01
9.782270e-01
9.232570e-01
9.523870e-01
9.733480e-01
9.861410e-01
9.907660e-01
9.082560e-01
9.391050e-01
9.628440e-01
9.794730e-01
9.889930e-01
8.796910e-01
9.113810e-01
9.374810e-01
9.579910e-01
9.729100e-01
9.513770e-01
9.144090e-01
8.601210e-01
7.885130e-01
6.995850e-01
9.782270e-01
9.442300e-01
8.965580e-01
8.352110e-01
7.601900e-01
9.907660e-01
9.587810e-01
9.167380e-01
8.646380e-01
8.024810e-01
9.889930e-01
9.580610e-01
9.206610e-01
8.767940e-01
8.264600e-01
9.729100e-01
9.420710e-01
9.083270e-01
8.716790e-01
8.321260e-01
6.995850e-01
5.936420e-01
4.902370e-01
3.893700e-01
2.910410e-01
7.601900e-01
6.599300e-01
5.577210e-01
4.535630e-01
3.474560e-01
8.024810e-01
7.100490e-01
6.117100e-01
5.074630e-01
3.973090e-01
8.264600e-01
7.439990e-01
6.522030e-01
5.510700e-01
4.406010e-01
8.321260e-01
7.617810e-01
6.792010e-01
5.843840e-01
4.773310e-01
2.910410e-01
2.279930e-01
1.801610e-01
1.475440e-01
1.301430e-01
3.474560e-01
2.785180e-01
2.243920e-01
1.850770e-01
1.605740e-01
3.973090e-01
3.249430e-01
2.664020e-01
2.216870e-01
1.907970e-01
4.406010e-01
3.672670e-01
3.061910e-01
2.573720e-01
2.208120e-01
4.773310e-01
4.054900e-01
3.437580e-01
2.921340e-01
2.506190e-01
1.301430e-01
1.166850e-01
1.092430e-01
1.078180e-01
1.124090e-01
1.605740e-01
1.412600e-01
1.293060e-01
1.247110e-01
1.274750e-01
1.907970e-01
1.659150e-01
1.494450e-01
1.413860e-01
1.417390e-01
2.208120e-01
1.906490e-01
1.696590e-01
1.578430e-01
1.552000e-01
2.506190e-01
2.154620e-01
1.899490e-01
1.740820e-01
1.678600e-01
1.124090e-01
1.143130e-01
1.145050e-01
1.129860e-01
1.097540e-01
1.274750e-01
1.286880e-01
1.280290e-01
1.254980e-01
1.210950e-01
1.417390e-01
1.418920e-01
1.401380e-01
1.364760e-01
1.309060e-01
1.552000e-01
1.539260e-01
1.508330e-01
1.459200e-01
1.391870e-01
1.678600e-01
1.647900e-01
1.601130e-01
1.538290e-01
1.459370e-01
1.097540e-01
1.065920e-01
1.030440e-01
9.911200e-02
9.479540e-02
1.210950e-01
1.168740e-01
1.126030e-01
1.082820e-01
1.039100e-01
1.309060e-01
1.256190e-01
1.206280e-01
1.159330e-01
1.115360e-01
1.391870e-01
1.328240e-01
1.271180e-01
1.220670e-01
1.176720e-01
1.459370e-01
1.384920e-01
1.320740e-01
1.266820e-01
1.223180e-01
8.939170e-02
9.306930e-02
9.645020e-02
9.953430e-02
1.023220e-01
8.740010e-02
9.081480e-02
9.391450e-02
9.669890e-02
9.916830e-02
8.530680e-02
8.845640e-02
9.128560e-02
9.379450e-02
9.598300e-02
8.311190e-02
8.599400e-02
8.856370e-02
9.082100e-02
9.276590e-02
8.081530e-02
8.342770e-02
8.574870e-02
8.777850e-02
8.951690e-02
1.023220e-01
1.049120e-01
1.071920e-01
1.091620e-01
1.108230e-01
9.916830e-02