<?xml version="1.0"?>
<VTKFile type="UnstructuredGrid" version="0.1" byte_order="LittleEndian" compressor="vtkZLibDataCompressor">
<UnstructuredGrid>
<Piece NumberOfPoints="10000" NumberOfCells="6400">
<Points>
<DataArray type="Float32" NumberOfComponents="3" format="ascii">
-3.360000e+00 0.000000e+00 0.000000e+00
-3.276000e+00 0.000000e+00 0.000000e+00
-3.192000e+00 0.000000e+00 0.000000e+00
-3.108000e+00 0.000000e+00 0.000000e+00
-3.024000e+00 0.000000e+00 0.000000e+00
-3.360000e+00 6.412500e-02 0.000000e+00
-3.276000e+00 6.412500e-02 0.000000e+00
-3.192000e+00 6.412500e-02 0.000000e+00
-3.108000e+00 6.412500e-02 0.000000e+00
-3.024000e+00 6.412500e-02 0.000000e+00
-3.360000e+00 1.282500e-01 0.000000e+00
-3.276000e+00 1.282500e-01 0.000000e+00
-3.192000e+00 1.282500e-01 0.000000e+00
-3.108000e+00 1.282500e-01 0.000000e+00
-3.024000e+00 1.282500e-01 0.000000e+00
-3.360000e+00 1.923750e-01 0.000000e+00
-3.276000e+00 1.923750e-01 0.000000e+00
-3.192000e+00 1.923750e-01 0.000000e+00
-3.108000e+00 1.923750e-01 0.000000e+00
-3.024000e+00 1.923750e-01 0.000000e+00
-3.360000e+00 2.565000e-01 0.000000e+00
-3.276000e+00 2.565000e-01 0.000000e+00
-3.192000e+00 2.565000e-01 0.000000e+00
-3.108000e+00 2.565000e-01 0.000000e+00
-3.024000e+00 2.565000e-01 0.000000e+00
-3.024000e+00 0.000000e+00 0.000000e+00
-2.940000e+00 0.000000e+00 0.000000e+00
-2.856000e+00 0.000000e+00 0.000000e+00
-2.772000e+00 0.000000e+00 0.000000e+00
-2.688000e+00 0.000000e+00 0.000000e+00
-3.024000e+00 6.412500e-02 0.000000e+00
-2.940000e+00 6.412500e-02 0.000000e+00
-2.856000e+00 6.412500e-02 0.000000e+00
-2.772000e+00 6.412500e-02 0.000000e+00
-2.688000e+00 6.412500e-02 0.000000e+00
-3.024000e+00 1.282500e-01 0.000000e+00
-2.940000e+00 1.282500e-01 0.000000e+00
-2.856000e+00 1.282500e-01 0.000000e+00
-2.772000e+00 1.282500e-01 0.000000e+00
-2.688000e+00 1.282500e-01 0.000000e+00
-3.024000e+00 1.923750e-01 0.000000e+00
-2.940000e+00 1.923750e-01 0.000000e+00
-2.856000e+00 1.923750e-01 0.000000e+00
-2.772000e+00 1.923750e-01 0.000000e+00
-2.688000e+00 1.923750e-01 0.000000e+00
-3.024000e+00 2.565000e-01 0.000000e+00
-2.940000e+00 2.565000e-01 0.000000e+00
-2.856000e+00 2.565000e-01 0.000000e+00
-2.772000e+00 2.565000e-01 0.000000e+00
-2.688000e+00 2.565000e-01 0.000000e+00
-2.688000e+00 0.000000e+00 0.000000e+00
-2.604000e+00 0.000000e+00 0.000000e+00
-2.520000e+00 0.000000e+00 0.000000e+00
-2.436000e+00 0.000000e+00 0.000000e+00
-2.352000e+00 0.000000e+00 0.000000e+00
-2.688000e+00 6.412500e-02 0.000000e+00
-2.604000e+00 6.412500e-02 0.000000e+00
-2.520000e+00 6.412500e-02 0.000000e+00
-2.436000e+00 6.412500e-02 0.000000e+00
-2.352000e+00 6.412500e-02 0.000000e+00
-2.688000e+00 1.282500e-01 0.000000e+00
-2.604000e+00 1.282500e-01 0.000000e+00
-2.520000e+00 1.282500e-01 0.000000e+00
-2.436000e+00 1.282500e-01 0.000000e+00
-2.352000e+00 1.282500e-01 0.000000e+00
-2.688000e+00 1.923750e-01 0.000000e+00
-2.604000e+00 1.923750e-01 0.000000e+00
-2.520000e+00 1.923750e-01 0.000000e+00
-2.436000e+00 1.923750e-01 0.000000e+00
-2.352000e+00 1.923750e-01 0.000000e+00
-2.688000e+00 2.565000e-01 0.000000e+00
-2.604000e+00 2.565000e-01 0.000000e+00
-2.520000e+00 2.565000e-01 0.000000e+00
-2.436000e+00 2.565000e-01 0.000000e+00
-2.352000e+00 2.565000e-01 0.000000e+00
-2.352000e+00 0.000000e+00 0.000000e+00
-2.268000e+00 0.000000e+00 0.000000e+00
-2.184000e+00 0.000000e+00 0.000000e+00
-2.100000e+00 0.000000e+00 0.000000e+00
-2.016000e+00 0.000000e+00 0.000000e+00
-2.352000e+00 6.412500e-02 0.000000e+00
-2.268000e+00 6.412500e-02 0.000000e+00
-2.184000e+00 6.412500e-02 0.000000e+00
-2.100000e+00 6.412500e-02 0.000000e+00
-2.016000e+00 6.412500e-02 0.000000e+00
-2.352000e+00 1.282500e-01 0.000000e+00
-2.268000e+00 1.282500e-01 0.000000e+00
-2.184000e+00 1.282500e-01 0.000000e+00
-2.100000e+00 1.282500e-01 0.000000e+00
-2.016000e+00 1.282500e-01 0.000000e+00
-2.352000e+00 1.923750e-01 0.000000e+00
-2.268000e+00 1.923750e-01 0.000000e+00
-2.184000e+00 1.923750e-01 0.000000e+00
-2.100000e+00 1.923750e-01 0.000000e+00
-2.016000e+00 1.923750e-01 0.000000e+00
-2.352000e+00 2.565000e-01 0.000000e+00
-2.268000e+00 2.565000e-01 0.000000e+00
-2.184000e+00 2.565000e-01 0.000000e+00
-2.100000e+00 2.565000e-01 0.000000e+00
-2.016000e+00 2.565000e-01 0.000000e+00
-2.016000e+00 0.000000e+00 0.000000e+00
-1.932000e+00 0.000000e+00 0.000000e+00
-1.848000e+00 0.000000e+00 0.000000e+00
-1.764000e+00 0.000000e+00 0.000000e+00
-1.680000e+00 0.000000e+00 0.000000e+00
-2.016000e+00 6.412500e-02 0.000000e+00
-1.932000e+00 6.412500e-02 0.000000e+00
-1.848000e+00 6.412500e-02 0.000000e+00
-1.764000e+00 6.412500e-02 0.000000e+00
-1.680000e+00 6.412500e-02 0.000000e+00
-2.016000e+00 1.282500e-01 0.000000e+00
-1.932000e+00 1.282500e-01 0.000000e+00
-1.848000e+00 1.282500e-01 0.000000e+00
-1.764000e+00 1.282500e-01 0.000000e+00
-1.680000e+00 1.282500e-01 0.000000e+00
-2.016000e+00 1.923750e-01 0.000000e+00
-1.932000e+00 1.923750e-01 0.000000e+00
-1.848000e+00 1.923750e-01 0.000000e+00
-1.764000e+00 1.923750e-01 0.000000e+00
-1.680000e+00 1.923750e-01 0.000000e+00
-2.016000e+00 2.565000e-01 0.000000e+00
-1.932000e+00 2.565000e-01 0.000000e+00
-1.848000e+00 2.565000e-01 0.000000e+00
-1.764000e+00 2.565000e-01 0.000000e+00
-1.680000e+00 2.565000e-01 0.000000e+00
-1.680000e+00 0.000000e+00 0.000000e+00
-1.596000e+00 0.000000e+00 0.000000e+00
-1.512000e+00 0.000000e+00 0.000000e+00
-1.428000e+00 0.000000e+00 0.000000e+00
-1.344000e+00 0.000000e+00 0.000000e+00
-1.680000e+00 6.412500e-02 0.000000e+00
-1.596000e+00 6.412500e-02 0.000000e+00
-1.512000e+00 6.412500e-02 0.000000e+00
-1.428000e+00 6.412500e-02 0.000000e+00
-1.344000e+00 6.412500e-02 0.000000e+00
-1.680000e+00 1.282500e-01 0.000000e+00
-1.596000e+00 1.282500e-01 0.000000e+00
-1.512000e+00 1.282500e-01 0.000000e+00
-1.428000e+00 1.282500e-01 0.000000e+00
-1.344000e+00 1.282500e-01 0.000000e+00
-1.680000e+00 1.923750e-01 0.000000e+00
-1.596000e+00 1.923750e-01 0.000000e+00
-1.512000e+00 1.923750e-01 0.000000e+00
-1.428000e+00 1.923750e-01 0.000000e+00
-1.344000e+00 1.923750e-01 0.000000e+00
-1.680000e+00 2.565000e-01 0.000000e+00
-1.596000e+00 2.565000e-01 0.000000e+00
-1.512000e+00 2.565000e-01 0.000000e+00
-1.428000e+00 2.565000e-01 0.000000e+00
-1.344000e+00 2.565000e-01 0.000000e+00
-1.344000e+00 0.000000e+00 0.000000e+00
-1.260000e+00 0.000000e+00 0.000000e+00
-1.176000e+00 0.000000e+00 0.000000e+00
-1.092000e+00 0.000000e+00 0.000000e+00
-1.008000e+00 0.000000e+00 0.000000e+00
-1.344000e+00 6.412500e-02 0.000000e+00
-1.260000e+00 6.412500e-02 0.000000e+00
-1.176000e+00 6.412500e-02 0.000000e+00
-1.092000e+00 6.412500e-02 0.000000e+00
-1.008000e+00 6.412500e-02 0.000000e+00
-1.344000e+00 1.282500e-01 0.000000e+00
-1.260000e+00 1.282500e-01 0.000000e+00
-1.176000e+00 1.282500e-01 0.000000e+00
-1.092000e+00 1.282500e-01 0.000000e+00
-1.008000e+00 1.282500e-01 0.000000e+00
-1.344000e+00 1.923750e-01 0.000000e+00
-1.260000e+00 1.923750e-01 0.000000e+00
-1.176000e+00 1.923750e-01 0.000000e+00
-1.092000e+00 1.923750e-01 0.000000e+00
-1.008000e+00 1.923750e-01 0.000000e+00
-1.344000e+00 2.565000e-01 0.000000e+00
-1.260000e+00 2.565000e-01 0.000000e+00
-1.176000e+00 2.565000e-01 0.000000e+00
-1.092000e+00 2.565000e-01 0.000000e+00
-1.008000e+00 2.565000e-01 0.000000e+00
-1.008000e+00 0.000000e+00 0.000000e+00
-9.240000e-01 0.000000e+00 0.000000e+00
-8.400000e-01 0.000000e+00 0.000000e+00
-7.560000e-01 0.000000e+00 0.000000e+00
-6.720000e-01 0.000000e+00 0.000000e+00
-1.008000e+00 6.412500e-02 0.000000e+00
-9.240000e-01 6.412500e-02 0.000000e+00
-8.400000e-01 6.412500e-02 0.000000e+00
-7.560000e-01 6.412500e-02 0.000000e+00
-6.720000e-01 6.412500e-02 0.000000e+00
-1.008000e+00 1.282500e-01 0.000000e+00
-9.240000e-01 1.282500e-01 0.000000e+00
-8.400000e-01 1.282500e-01 0.000000e+00
-7.560000e-01 1.282500e-01 0.000000e+00
-6.720000e-01 1.282500e-01 0.000000e+00
-1.008000e+00 1.923750e-01 0.000000e+00
-9.240000e-01 1.923750e-01 0.000000e+00
-8.400000e-01 1.923750e-01 0.000000e+00
-7.560000e-01 1.923750e-01 0.000000e+00
-6.720000e-01 1.923750e-01 0.000000e+00
-1.008000e+00 2.565000e-01 0.000000e+00
-9.240000e-01 2.565000e-01 0.000000e+00
-8.400000e-01 2.565000e-01 0.000000e+00
-7.560000e-01 2.565000e-01 0.000000e+00
-6.720000e-01 2.565000e-01 0.000000e+00
-6.720000e-01 0.000000e+00 0.000000e+00
-5.880000e-01 0.000000e+00 0.000000e+00
-5.040000e-01 0.000000e+00 0.000000e+00
-4.200000e-01 0.000000e+00 0.000000e+00
-3.360000e-01 0.000000e+00 0.000000e+00
-6.720000e-01 6.412500e-02 0.000000e+00
-5.880000e-01 6.412500e-02 0.000000e+00
-5.040000e-01 6.412500e-02 0.000000e+00
-4.200000e-01 6.412500e-02 0.000000e+00
-3.360000e-01 6.412500e-02 0.000000e+00
-6.720000e-01 1.282500e-01 0.000000e+00
-5.880000e-01 1.282500e-01 0.000000e+00
-5.040000e-01 1.282500e-01 0.000000e+00
-4.200000e-01 1.282500e-01 0.000000e+00
-3.360000e-01 1.282500e-01 0.000000e+00
-6.720000e-01 1.923750e-01 0.000000e+00
-5.880000e-01 1.923750e-01 0.000000e+00
-5.040000e-01 1.923750e-01 0.000000e+00
-4.200000e-01 1.923750e-01 0.000000e+00
-3.360000e-01 1.923750e-01 0.000000e+00
-6.720000e-01 2.565000e-01 0.000000e+00
-5.880000e-01 2.565000e-01 0.000000e+00
-5.040000e-01 2.565000e-01 0.000000e+00
-4.200000e-01 2.565000e-01 0.000000e+00
-3.360000e-01 2.565000e-01 0.000000e+00
-3.360000e-01 0.000000e+00 0.000000e+00
-2.520000e-01 0.000000e+00 0.000000e+00
-1.680000e-01 0.000000e+00 0.000000e+00
-8.400000e-02 0.000000e+00 0.000000e+00
-4.440890e-16 0.000000e+00 0.000000e+00
-3.360000e-01 6.412500e-02 0.000000e+00
-2.520000e-01 6.412500e-02 0.000000e+00
-1.680000e-01 6.412500e-02 0.000000e+00
-8.400000e-02 6.412500e-02 0.000000e+00
-4.440890e-16 6.412500e-02 0.000000e+00
-3.360000e-01 1.282500e-01 0.000000e+00
-2.520000e-01 1.282500e-01 0.000000e+00
-1.680000e-01 1.282500e-01 0.000000e+00
-8.400000e-02 1.282500e-01 0.000000e+00
-4.440890e-16 1.282500e-01 0.000000e+00
-3.360000e-01 1.923750e-01 0.000000e+00
-2.520000e-01 1.923750e-01 0.000000e+00
-1.680000e-01 1.923750e-01 0.000000e+00
[...]
<PointData>
<DataArray type="Float32" Name="V1" format="ascii">
0.000000e+00
0.000000e+00
0.000000e+00
0.000000e+00
0.000000e+00
6.347820e-02
5.959880e-02
5.551030e-02
5.121290e-02
4.670660e-02
1.013490e-01
9.767300e-02
9.316840e-02
8.783480e-02
8.167230e-02
1.136110e-01
1.142230e-01
1.129740e-01
1.098660e-01
1.048970e-01
1.002660e-01
1.092480e-01
1.149280e-01
1.173060e-01
1.163810e-01
0.000000e+00
0.000000e+00
0.000000e+00
0.000000e+00
0.000000e+00
4.670660e-02
4.213830e-02
3.914180e-02
3.771710e-02
3.786420e-02
8.167230e-02
7.528300e-02
7.108720e-02
6.908510e-02
6.927660e-02
1.048970e-01
9.943400e-02
9.583630e-02
9.410400e-02
9.423720e-02
1.163810e-01
1.145910e-01
1.133890e-01
1.127740e-01
1.127460e-01
0.000000e+00
0.000000e+00
0.000000e+00
0.000000e+00
0.000000e+00
3.786420e-02
3.814160e-02
3.864180e-02
3.936500e-02
4.031090e-02
6.927660e-02
6.982690e-02
7.082110e-02
7.225910e-02
7.414090e-02
9.423720e-02
9.505600e-02
9.653770e-02
9.868230e-02
1.014900e-01
1.127460e-01
1.138290e-01
1.157920e-01
1.186350e-01
1.223580e-01
0.000000e+00
0.000000e+00
0.000000e+00
0.000000e+00
0.000000e+00
4.031090e-02
4.137980e-02
4.285470e-02
4.473570e-02
4.702280e-02
7.414090e-02
7.625200e-02
7.902810e-02
8.246930e-02
8.657540e-02
1.014900e-01
1.046170e-01
1.085200e-01
1.132010e-01
1.186580e-01
1.223580e-01
1.264740e-01
1.313310e-01
1.369300e-01
1.432700e-01
0.000000e+00
0.000000e+00
0.000000e+00
0.000000e+00
0.000000e+00
4.702280e-02
4.954520e-02
5.255530e-02
5.605320e-02
6.003890e-02
8.657540e-02
9.109600e-02
9.645130e-02
1.026410e-01
1.096660e-01
1.186580e-01
1.246520e-01
1.316880e-01
1.397640e-01
1.488820e-01
1.432700e-01
1.502140e-01
1.582650e-01
1.674220e-01
1.776860e-01
0.000000e+00
0.000000e+00
0.000000e+00
0.000000e+00
0.000000e+00
6.003890e-02
6.421030e-02
6.933970e-02
7.542690e-02
8.247210e-02
1.096660e-01
1.170080e-01
1.259300e-01
1.364300e-01
1.485100e-01
1.488820e-01
1.583940e-01
1.697700e-01
1.830100e-01
1.981140e-01
1.776860e-01
1.883670e-01
2.008600e-01
2.151650e-01
2.312840e-01
0.000000e+00
0.000000e+00
0.000000e+00
0.000000e+00
0.000000e+00
8.247210e-02
8.940560e-02
9.812720e-02
1.086370e-01
1.209340e-01
1.485100e-01
1.604000e-01
1.751820e-01
1.928570e-01
2.134250e-01
1.981140e-01
2.129830e-01
2.311650e-01
2.526620e-01
2.774730e-01
2.312840e-01
2.471540e-01
2.660760e-01
2.880500e-01
3.130770e-01
0.000000e+00
0.000000e+00
0.000000e+00
0.000000e+00
0.000000e+00
1.209340e-01
1.325460e-01
1.468940e-01
1.639770e-01
1.837960e-01
2.134250e-01
2.329420e-01
2.567670e-01
2.848990e-01
3.173380e-01
2.774730e-01
3.011880e-01
3.296190e-01
3.627640e-01
4.006240e-01
3.130770e-01
3.372840e-01
3.654490e-01
3.975730e-01
4.336550e-01
0.000000e+00
0.000000e+00
0.000000e+00
0.000000e+00
0.000000e+00
1.837960e-01
2.044740e-01
2.268000e-01
2.507730e-01
2.763930e-01
3.173380e-01
3.515110e-01
3.882530e-01
4.275630e-01
4.694410e-01
4.006240e-01
4.411100e-01
4.843580e-01
5.303700e-01
5.791460e-01
4.336550e-01
4.732700e-01
5.151170e-01
5.591960e-01
6.055060e-01
0.000000e+00
0.000000e+00
0.000000e+00
0.000000e+00
0.000000e+00
2.763930e-01
3.089070e-01
3.382860e-01
3.645290e-01
3.876360e-01
4.694410e-01
5.228490e-01
5.717470e-01
6.161350e-01
6.560120e-01
5.791460e-01
6.418260e-01
7.003840e-01
7.548180e-01
8.051290e-01
6.055060e-01
6.658390e-01
7.241960e-01
7.805780e-01
8.349850e-01
0.000000e+00
0.000000e+00
0.000000e+00
0.000000e+00
0.000000e+00
3.876360e-01
4.180440e-01
4.399310e-01
4.532960e-01
4.581410e-01
6.560120e-01
7.081590e-01
7.478060e-01
7.749530e-01
7.896010e-01
8.051290e-01
8.703450e-01
9.236260e-01
9.649710e-01
9.943810e-01
8.349850e-01
9.046020e-01
9.673910e-01
1.023350e+00
1.072480e+00
0.000000e+00
0.000000e+00
0.000000e+00
0.000000e+00
0.000000e+00
4.581410e-01
4.476260e-01
4.287220e-01
4.014290e-01
3.657480e-01
7.896010e-01
7.811180e-01
7.589390e-01
7.230640e-01
6.734920e-01
9.943810e-01
1.000480e+00
9.906510e-01
9.649030e-01
9.232330e-01
1.072480e+00
1.105700e+00
1.123860e+00
1.126950e+00
1.114970e+00
0.000000e+00
0.000000e+00
0.000000e+00
0.000000e+00
0.000000e+00
3.657480e-01
3.094120e-01
2.552440e-01
2.032440e-01
1.534120e-01
6.734920e-01
5.878200e-01
5.017060e-01
4.151500e-01
3.281500e-01
9.232330e-01
8.352260e-01
7.393880e-01
6.357180e-01
5.242160e-01
1.114970e+00
1.051630e+00
9.682880e-01
8.649480e-01
7.416080e-01
0.000000e+00
0.000000e+00
0.000000e+00
0.000000e+00
0.000000e+00
1.534120e-01
1.160030e-01
8.333940e-02
5.542170e-02
3.224960e-02
3.281500e-01
2.577520e-01
1.961390e-01
1.433140e-01
9.927460e-02
5.242160e-01
4.252460e-01
3.384000e-01
2.636760e-01
2.010750e-01
7.416080e-01
6.184870e-01
5.101210e-01
4.165090e-01
3.376510e-01
0.000000e+00
0.000000e+00
0.000000e+00
0.000000e+00
0.000000e+00
3.224960e-02
1.483530e-02
6.839690e-03
8.262770e-03
1.910460e-02
9.927460e-02
6.679810e-02
4.989030e-02
4.855130e-02
6.278120e-02
2.010750e-01
1.558880e-01
1.291520e-01
1.208660e-01
1.310300e-01
3.376510e-01
2.821060e-01
2.446240e-01
2.252060e-01
2.238510e-01
0.000000e+00
0.000000e+00
0.000000e+00
0.000000e+00
0.000000e+00
1.910460e-02
2.517170e-02
3.095210e-02
3.644580e-02
4.165270e-02
6.278120e-02
7.022430e-02
7.726820e-02
8.391270e-02
9.015790e-02
1.310300e-01
1.351580e-01
1.389480e-01
1.424010e-01
1.455150e-01
2.238510e-01
2.199720e-01
2.159920e-01
2.119100e-01
2.077250e-01
0.000000e+00
0.000000e+00
0.000000e+00
0.000000e+00
0.000000e+00
4.165270e-02
4.636330e-02
4.920300e-02
5.017170e-02
4.926940e-02
9.015790e-02
9.589960e-02
9.879500e-02
9.884400e-02
9.604660e-02
1.455150e-01
1.486090e-01
1.487760e-01
1.460170e-01
1.403310e-01
2.077250e-01
2.044910e-01
1.991460e-01
1.916900e-01
1.821240e-01
0.000000e+00
0.000000e+00
0.000000e+00
0.000000e+00
0.000000e+00
4.926940e-02
4.950290e-02
4.904600e-02
4.789880e-02
4.606140e-02
9.604660e-02
9.513080e-02
9.326100e-02
9.043740e-02
8.665990e-02
1.403310e-01
1.368840e-01
1.326450e-01
1.276160e-01
1.217950e-01
1.821240e-01
1.747620e-01
1.671980e-01
1.594340e-01
1.514680e-01
0.000000e+00
0.000000e+00
0.000000e+00
0.000000e+00
0.000000e+00
4.606140e-02
4.492530e-02
4.354290e-02
4.191440e-02
4.003970e-02
8.665990e-02
8.401430e-02
8.106930e-02
7.782500e-02
7.428130e-02
1.217950e-01
1.172670e-01
1.125790e-01
1.077320e-01
1.027250e-01
1.514680e-01
1.446840e-01
1.380730e-01
1.316350e-01
1.253700e-01
0.000000e+00
0.000000e+00
0.000000e+00
0.000000e+00
0.000000e+00
4.003970e-02
3.894190e-02
3.708410e-02
3.446650e-02
3.108890e-02
7.428130e-02
7.177940e-02
6.836830e-02
6.404790e-02
5.881820e-02
1.027250e-01
9.851270e-02
9.385250e-02
8.874420e-02
8.318790e-02
1.253700e-01
1.191420e-01
1.135370e-01
1.085560e-01
1.041980e-01
1.002660e-01
1.092480e-01
1.149280e-01
1.173060e-01
1.163810e-01
9.945850e-02
1.075500e-01
1.135820e-01
1.175560e-01
1.194710e-01
9.848610e-02
1.055320e-01
1.114720e-01
1.163060e-01
1.200340e-01
9.734850e-02
1.031950e-01
1.085970e-01
1.135560e-01
1.180720e-01
9.604590e-02
1.005380e-01
1.049580e-01
1.093060e-01
1.135820e-01
1.163810e-01
1.145910e-01
1.133890e-01
1.127740e-01
1.127460e-01
1.194710e-01
1.200010e-01
1.205930e-01
1.212480e-01
1.219660e-01
1.200340e-01
1.222570e-01
1.241950e-01
1.258470e-01
1.272140e-01
1.180720e-01
1.213610e-01
1.241940e-01
1.265690e-01
1.284870e-01
1.135820e-01
1.173130e-01
1.205900e-01
1.234150e-01
1.257870e-01
1.127460e-01
1.138290e-01
1.157920e-01
1.186350e-01
1.223580e-01
1.219660e-01
1.234290e-01
1.257370e-01
1.288910e-01
1.328910e-01
1.272140e-01
1.290460e-01
1.316490e-01
1.350240e-01
1.391710e-01
1.284870e-01
1.306800e-01
1.335300e-01
1.370360e-01
1.411980e-01
1.257870e-01
1.283320e-01
1.313780e-01
1.349240e-01
1.389720e-01
1.223580e-01
1.264740e-01
1.313310e-01
1.369300e-01
1.432700e-01
1.328910e-01
1.373570e-01
1.425500e-01
1.484700e-01
1.551180e-01
1.391710e-01
1.438200e-01
1.491710e-01
1.552240e-01
1.619800e-01
1.411980e-01
1.458620e-01
1.511930e-01
1.571910e-01
1.638560e-01
1.389720e-01
1.434830e-01
1.486160e-01
1.543710e-01
1.607470e-01
1.432700e-01
1.502140e-01
1.582650e-01
1.674220e-01
1.776860e-01
1.551180e-01
1.623070e-01
1.705790e-01
1.799350e-01
1.903730e-01
1.619800e-01
1.692240e-01
1.775090e-01
1.868350e-01
1.972030e-01
1.638560e-01
1.709650e-01
1.790540e-01
1.881240e-01
1.981750e-01
1.607470e-01
1.675300e-01
1.752150e-01
1.838020e-01
1.932900e-01
1.776860e-01
1.883670e-01
2.008600e-01
2.151650e-01
2.312840e-01
1.903730e-01
2.011580e-01
2.136990e-01
2.279980e-01
2.440530e-01
1.972030e-01
2.078640e-01
2.202080e-01
2.342340e-01
2.499420e-01
1.981750e-01
2.084860e-01
2.203860e-01
2.338740e-01
2.489490e-01
1.932900e-01
2.030240e-01
2.142340e-01
2.269170e-01
2.410750e-01
2.312840e-01
2.471540e-01
2.660760e-01
2.880500e-01
3.130770e-01
2.440530e-01
2.595630e-01
2.781520e-01
2.998200e-01
3.245680e-01
2.499420e-01
2.648840e-01
2.829040e-01
3.040020e-01
3.281780e-01
2.489490e-01
2.631180e-01
2.803340e-01
3.005960e-01
3.239060e-01
2.410750e-01
2.542640e-01
2.704400e-01
2.896020e-01
3.117510e-01
3.130770e-01
3.372840e-01
3.654490e-01
3.975730e-01
4.336550e-01
3.245680e-01
3.477850e-01
3.752890e-01
4.070820e-01
4.431630e-01
3.281780e-01
3.501330e-01
3.767040e-01
4.078920e-01
4.436950e-01
3.239060e-01
3.443290e-01
3.696950e-01
4.000020e-01
4.352500e-01
3.117510e-01
3.303730e-01
3.542600e-01
3.834120e-01
4.178290e-01
4.336550e-01
4.732700e-01
5.151170e-01
5.591960e-01
6.055060e-01
4.431630e-01
4.814800e-01
5.229780e-01
5.676570e-01
6.155180e-01
4.436950e-01
4.804420e-01
5.212230e-01
5.660370e-01
6.148850e-01
4.352500e-01
4.701570e-01
5.098520e-01
5.543360e-01
6.036080e-01
4.178290e-01
4.506240e-01
4.888640e-01
5.325520e-01
5.816870e-01
6.055060e-01
6.658390e-01
7.241960e-01
7.805780e-01
8.349850e-01
6.155180e-01
6.789790e-01
7.407270e-01
8.007610e-01
8.590800e-01
6.148850e-01
6.807040e-01
7.451070e-01
8.080920e-01
8.696600e-01
6.036080e-01
6.710140e-01
7.373350e-01
8.025720e-01
8.667250e-01
5.816870e-01
6.499080e-01
7.174130e-01
7.842020e-01
8.502750e-01
8.349850e-01
9.046020e-01
9.673910e-01
1.023350e+00
1.072480e+00
8.590800e-01
9.385650e-01
1.010330e+00
1.074380e+00
1.130710e+00
8.696600e-01
9.582060e-01
1.038150e+00
1.109490e+00
1.172230e+00
8.667250e-01
9.635230e-01
1.050840e+00
1.128670e+00
1.197020e+00
8.502750e-01
9.545180e-01
1.048400e+00
1.131930e+00
1.205110e+00
1.072480e+00
1.105700e+00
1.123860e+00
1.126950e+00
1.114970e+00
1.130710e+00
1.172280e+00
1.200480e+00
1.215320e+00
1.216790e+00
1.172230e+00
1.220320e+00
1.256470e+00
1.280660e+00
1.292900e+00
1.197020e+00
1.249830e+00
1.291810e+00
1.322960e+00
1.343290e+00
1.205110e+00
1.260810e+00
1.306520e+00
1.342240e+00
1.367970e+00
1.114970e+00
1.051630e+00
9.682880e-01
8.649480e-01
7.416080e-01
1.216790e+00
1.170610e+00
1.105380e+00
1.021120e+00
9.178040e-01
1.292900e+00
1.257680e+00
1.205780e+00
1.137180e+00
1.051900e+00
1.343290e+00
1.312840e+00
1.269460e+00
1.213150e+00
1.143900e+00
1.367970e+00
1.336100e+00
1.296450e+00
1.249010e+00
1.193810e+00
7.416080e-01
6.184870e-01
5.101210e-01
4.165090e-01
3.376510e-01
9.178040e-01
7.923910e-01
6.769150e-01
5.713750e-01
4.757730e-01
1.051900e+00
9.314970e-01
8.156810e-01
7.044530e-01
5.978150e-01
1.143900e+00
1.035810e+00
9.264190e-01
8.157420e-01
7.037760e-01
1.193810e+00
1.105320e+00
1.009130e+00
9.052420e-01
7.936570e-01
3.376510e-01
2.821060e-01
2.446240e-01
2.252060e-01
2.238510e-01
4.757730e-01
4.082020e-01
3.577380e-01
3.243830e-01
3.081360e-01
5.978150e-01
5.202660e-01
4.583600e-01
4.120970e-01
3.814780e-01
7.037760e-01
6.182980e-01
5.464890e-01
4.883480e-01
4.438770e-01
7.936570e-01
7.022990e-01
6.221260e-01
5.531360e-01
4.953320e-01
2.238510e-01
2.199720e-01
2.159920e-01
2.119100e-01
2.077250e-01
3.081360e-01
2.931140e-01
2.792630e-01
2.665830e-01
2.550730e-01
3.814780e-01
3.553790e-01
3.317820e-01
3.106860e-01
2.920920e-01
4.438770e-01
4.067680e-01
3.735490e-01
3.442210e-01
3.187820e-01
4.953320e-01
4.472800e-01
4.045650e-01
3.671860e-01
3.351440e-01
2.077250e-01
2.044910e-01
1.991460e-01
1.916900e-01
1.821240e-01
2.550730e-01
2.460300e-01
2.355760e-01
2.237140e-01
2.104410e-01
2.920920e-01
2.778110e-01
2.628700e-01
2.472690e-01
2.310090e-01
3.187820e-01
2.998350e-01
2.810260e-01
2.623570e-01
2.438270e-01
3.351440e-01
3.121010e-01
2.900460e-01
2.689770e-01
2.488950e-01
1.821240e-01
1.747620e-01
1.671980e-01
1.594340e-01
1.514680e-01
2.104410e-01
2.000070e-01
1.897990e-01
1.798180e-01
1.700630e-01
2.310090e-01
2.180300e-01
2.056820e-01
1.939650e-01
1.828780e-01
2.438270e-01
2.288330e-01
2.148490e-01
2.018740e-01
1.899100e-01
2.488950e-01
2.324140e-01
2.172980e-01
2.035470e-01
1.911610e-01
1.514680e-01
1.446840e-01
1.380730e-01
1.316350e-01
1.253700e-01
1.700630e-01
1.617880e-01
1.538560e-01
1.462670e-01
1.390220e-01
1.828780e-01
1.734910e-01
1.646040e-01
1.562140e-01
1.483230e-01
1.899100e-01
1.797940e-01
1.703160e-01
1.614770e-01
1.532760e-01
1.911610e-01
1.806960e-01
1.709940e-01
1.620550e-01
1.538780e-01
1.253700e-01
1.191420e-01
1.135370e-01
1.085560e-01
1.041980e-01
1.390220e-01
1.320800e-01
1.258890e-01
1.204500e-01
1.157610e-01
1.483230e-01
1.409120e-01
1.343380e-01
1.285990e-01
1.236980e-01
1.532760e-01
1.456390e-01
1.388820e-01
1.330050e-01
1.280070e-01
1.538780e-01
1.462610e-01
1.395240e-01
1.336660e-01
1.286890e-01
9.604590e-02
1.005380e-01
1.049580e-01
1.093060e-01
1.135820e-01
9.458900e-02
9.858940e-02
1.025580e-01
1.064940e-01
1.103990e-01
9.299440e-02
9.664960e-02
1.002630e-01
1.038350e-01
1.073660e-01
9.126190e-02
9.471840e-02
9.807390e-02
1.013280e-01
1.044820e-01
8.939170e-02
9.279590e-02
9.599000e-02
9.897390e-02
1.017480e-01
1.135820e-01
1.173130e-01
1.205900e-01
1.234150e-01
1.257870e-01
1.103990e-01
1.139970e-01
1.172870e-01
1.202710e-01
1.229480e-01
1.073660e-01
1.107720e-01
1.140040e-01
1.170620e-01
1.199460e-01
1.044820e-01
1.076380e-01
1.107400e-01
1.137880e-01
1.167820e-01
1.017480e-01
1.045960e-01
1.074970e-01
1.104500e-01
1.134560e-01
1.257870e-01
1.283320e-01
1.313780e-01
1.349240e-01
1.389720e-01
1.229480e-01
1.257380e-01
1.289380e-01
1.325480e-01
1.365690e-01
1.199460e-01
1.229140e-01
1.262150e-01
1.298500e-01
1.338180e-01
1.167820e-01
1.198600e-01
1.232090e-01
1.268290e-01
1.307190e-01
1.134560e-01
1.165760e-01
1.199190e-01
1.234850e-01
1.272740e-01
1.389720e-01
1.434830e-01
1.486160e-01
1.543710e-01
1.607470e-01
1.365690e-01
1.409860e-01
1.459890e-01
1.515770e-01
1.577500e-01
1.338180e-01
1.381220e-01
1.429730e-01
1.483700e-01
1.543140e-01
1.307190e-01
1.348920e-01
1.395700e-01
1.447520e-01
1.504390e-01
1.272740e-01
1.312960e-01
1.357780e-01
1.407210e-01
1.461240e-01
1.607470e-01
1.675300e-01
1.752150e-01
1.838020e-01
1.932900e-01
1.577500e-01
1.642880e-01
1.716770e-01
1.799160e-01
1.890060e-01
1.543140e-01
1.605740e-01
1.676310e-01
1.754830e-01
1.841310e-01
1.504390e-01
1.563900e-01
1.630780e-01
1.705020e-01
1.786630e-01
1.461240e-01
1.517340e-01
1.580170e-01
1.649740e-01
1.726040e-01
1.932900e-01
2.030240e-01
2.142340e-01
2.269170e-01
2.410750e-01
1.890060e-01
1.982890e-01
2.089720e-01
2.210560e-01
2.345410e-01
1.841310e-01
1.928990e-01
2.029880e-01
2.143980e-01
2.271280e-01
1.786630e-01
1.868560e-01
1.962820e-01
2.069430e-01
2.188380e-01
1.726040e-01
1.801590e-01
1.888550e-01
1.986920e-01
2.096700e-01
2.410750e-01
2.542640e-01
2.704400e-01
2.896020e-01
3.117510e-01
2.345410e-01
2.469900e-01
2.623540e-01
2.806320e-01
3.018250e-01
2.271280e-01
2.387400e-01
2.531570e-01
2.703780e-01
2.904030e-01
2.188380e-01
2.295150e-01
2.428490e-01
2.588390e-01
2.774860e-01
2.096700e-01
2.193150e-01
2.314310e-01
2.460170e-01
2.630730e-01
3.117510e-01
3.303730e-01
3.542600e-01
3.834120e-01
4.178290e-01
3.018250e-01
3.185600e-01
3.411060e-01
3.694620e-01
4.036290e-01
2.904030e-01
3.050890e-01
3.260420e-01
3.532600e-01
3.867440e-01
2.774860e-01
2.899600e-01
3.090670e-01
3.348050e-01
3.671770e-01
2.630730e-01
2.731730e-01
2.901820e-01
3.140990e-01
3.449250e-01
4.178290e-01
4.506240e-01
4.888640e-01
5.325520e-01
5.816870e-01
4.036290e-01
4.344030e-01
4.710170e-01
5.134700e-01
5.617640e-01
3.867440e-01
4.139980e-01
4.479810e-01
4.886940e-01
5.361350e-01
3.671770e-01
3.894110e-01
4.197590e-01
4.582210e-01
5.047980e-01
3.449250e-01
3.606400e-01
3.863490e-01
4.220540e-01
4.677540e-01
5.816870e-01
6.499080e-01
7.174130e-01
7.842020e-01
8.502750e-01
5.617640e-01
6.316540e-01
6.997730e-01
7.661220e-01
8.307000e-01
5.361350e-01
6.059930e-01
6.719550e-01
7.340200e-01
7.921890e-01
5.047980e-01
5.729260e-01
6.339590e-01
6.878980e-01
7.347420e-01
4.677540e-01
5.324520e-01
5.857860e-01
6.277540e-01
6.583580e-01
8.502750e-01
9.545180e-01
1.048400e+00
1.131930e+00
1.205110e+00
8.307000e-01
9.418620e-01
1.040310e+00
1.126040e+00
1.199050e+00
7.921890e-01
9.091200e-01
1.010330e+00
1.095820e+00
1.165590e+00
7.347420e-01
8.562920e-01
9.584710e-01
1.041280e+00
1.104720e+00
6.583580e-01
7.833770e-01
8.847290e-01
9.624130e-01
1.016430e+00
1.205110e+00
1.260810e+00
1.306520e+00
1.342240e+00
1.367970e+00
1.199050e+00
1.254950e+00
1.302190e+00
1.340770e+00
1.370690e+00
1.165590e+00
1.219990e+00
1.267120e+00
1.306990e+00
1.339600e+00
1.104720e+00
1.155920e+00
1.201320e+00
1.240920e+00
1.274710e+00
1.016430e+00
1.062740e+00
1.104770e+00
1.142530e+00
1.176020e+00
1.367970e+00
1.336100e+00
1.296450e+00
1.249010e+00
1.193810e+00
1.370690e+00
1.340160e+00
1.302820e+00
1.258660e+00
1.207690e+00
1.339600e+00
1.307600e+00
1.272390e+00
1.233980e+00
1.192360e+00
1.274710e+00
1.238400e+00
1.205150e+00
1.174950e+00
1.147810e+00
1.176020e+00
1.132570e+00
1.101100e+00
1.081590e+00
1.074040e+00
1.193810e+00
1.105320e+00
1.009130e+00
9.052420e-01
7.936570e-01
1.207690e+00
1.124050e+00
1.033700e+00
9.366560e-01
8.329090e-01
1.192360e+00
1.114430e+00
1.030330e+00
9.400500e-01
8.435930e-01
1.147810e+00
1.076470e+00
9.990110e-01
9.154220e-01
8.257060e-01
1.074040e+00
1.010170e+00
9.397470e-01
8.627740e-01
7.792510e-01
7.936570e-01
7.022990e-01
6.221260e-01
5.531360e-01
4.953320e-01
8.329090e-01
7.478380e-01
6.688920e-01
5.960720e-01
5.293780e-01
8.435930e-01
7.678970e-01
6.934340e-01
6.202030e-01
5.482050e-01
8.257060e-01
7.624750e-01
6.957500e-01
6.255290e-01
5.518150e-01
7.792510e-01
7.315740e-01
6.758410e-01
6.120510e-01
5.402060e-01
4.953320e-01
4.472800e-01
4.045650e-01
3.671860e-01
3.351440e-01
5.293780e-01
4.735550e-01
4.237850e-01
3.800690e-01
3.424070e-01
5.482050e-01
4.876150e-01
4.333770e-01
3.854920e-01
3.439580e-01
5.518150e-01
4.894620e-01
4.333410e-01
3.834530e-01
3.397970e-01
5.402060e-01
4.790940e-01
4.236760e-01
3.739530e-01
3.299240e-01
3.351440e-01
3.121010e-01
2.900460e-01
2.689770e-01
2.488950e-01
3.424070e-01
3.162120e-01
2.919060e-01
2.694900e-01
2.489640e-01
3.439580e-01
3.158830e-01
2.903380e-01
2.673220e-01
2.468360e-01
3.397970e-01
3.111150e-01
2.853400e-01
2.624720e-01
2.425120e-01
3.299240e-01
3.019080e-01
2.769140e-01
2.549410e-01
2.359900e-01
2.488950e-01
2.324140e-01
2.172980e-01
2.035470e-01
1.911610e-01
2.489640e-01
2.317710e-01
2.161660e-01
2.021500e-01
1.897220e-01
2.468360e-01
2.292970e-01
2.135110e-01
1.994780e-01
1.871970e-01
2.425120e-01
2.249930e-01
2.093320e-01
1.955300e-01
1.835850e-01
2.359900e-01
2.188580e-01
2.036300e-01
1.903060e-01
1.788860e-01
1.911610e-01
1.806960e-01
1.709940e-01
1.620550e-01
1.538780e-01
1.897220e-01
1.792950e-01
1.696740e-01
1.608580e-01
1.528480e-01
1.871970e-01
1.769520e-01
1.675270e-01
1.589230e-01
1.511410e-01
1.835850e-01
1.736650e-01
1.645530e-01
1.562500e-01
1.487550e-01
1.788860e-01
1.694350e-01
1.607520e-01
1.528380e-01
1.456930e-01
1.538780e-01
1.462610e-01
1.395240e-01
1.336660e-01
1.286890e-01
1.528480e-01
1.453450e-01
1.387470e-01
1.330520e-01
1.282620e-01
1.511410e-01
1.437970e-01
1.373750e-01
1.318760e-01
1.272990e-01
1.487550e-01
1.416140e-01
1.354080e-01
1.301360e-01
1.257990e-01
1.456930e-01
1.387980e-01
1.328450e-01
1.278330e-01
1.237640e-01
8.939170e-02
9.279590e-02
9.599000e-02
9.897390e-02
1.017480e-01
8.740010e-02
9.058400e-02
9.357730e-02
9.638000e-02
9.899190e-02
8.530680e-02
8.826530e-02
9.105990e-02
9.369080e-02
9.615780e-02
8.311190e-02
8.583960e-02
8.843780e-02
9.090640e-02
9.324550e-02
8.081530e-02
8.330710e-02
8.571090e-02
8.802690e-02
9.025490e-02
1.017480e-01
1.045960e-01
1.074970e-01
1.104500e-01
1.134560e-01
9.899190e-02
1.016380e-01
1.043910e-01